 TITLE = "Profiles along polylines"
 VARIABLES = "DIST" "HEAD" "C(4)" "Ca" "Mg" "Cl" "pH" "pe" "Calcite" "Dolomite(dis)" 
 ZONE T="TIME=0.000000000000e+00"
0.000000000000e+00 1.000000000000e+00 1.229918170984e-01 1.229918170984e-01 9.999999999277e-10 9.999999999277e-10 9.910363769784e+00 7.977177254435e+00 5.741200000000e-02 0.000000000000e+00 
5.000000000000e-03 1.000000000000e+00 1.229918170984e-01 1.229918170984e-01 9.999999999277e-10 9.999999999277e-10 9.910363769784e+00 7.977177254435e+00 5.741200000000e-02 0.000000000000e+00 
1.000000000000e-02 1.000000000000e+00 1.229918170984e-01 1.229918170984e-01 9.999999999277e-10 9.999999999277e-10 9.910363769784e+00 7.977177254435e+00 5.741200000000e-02 0.000000000000e+00 
1.500000000000e-02 1.000000000000e+00 1.229918170984e-01 1.229918170984e-01 9.999999999277e-10 9.999999999277e-10 9.910363769784e+00 7.977177254435e+00 5.741200000000e-02 0.000000000000e+00 
2.000000000000e-02 1.000000000000e+00 1.229918170984e-01 1.229918170984e-01 9.999999999277e-10 9.999999999277e-10 9.910363769784e+00 7.977177254435e+00 5.741200000000e-02 0.000000000000e+00 
2.500000000000e-02 1.000000000000e+00 1.229918170984e-01 1.229918170984e-01 9.999999999277e-10 9.999999999277e-10 9.910363769784e+00 7.977177254435e+00 5.741200000000e-02 0.000000000000e+00 
3.000000000000e-02 1.000000000000e+00 1.229918170984e-01 1.229918170984e-01 9.999999999277e-10 9.999999999277e-10 9.910363769784e+00 7.977177254435e+00 5.741200000000e-02 0.000000000000e+00 
3.500000000000e-02 1.000000000000e+00 1.229918170984e-01 1.229918170984e-01 9.999999999277e-10 9.999999999277e-10 9.910363769784e+00 7.977177254435e+00 5.741200000000e-02 0.000000000000e+00 
4.000000000000e-02 1.000000000000e+00 1.229918170984e-01 1.229918170984e-01 9.999999999277e-10 9.999999999277e-10 9.910363769784e+00 7.977177254435e+00 5.741200000000e-02 0.000000000000e+00 
4.500000000000e-02 1.000000000000e+00 1.229918170984e-01 1.229918170984e-01 9.999999999277e-10 9.999999999277e-10 9.910363769784e+00 7.977177254435e+00 5.741200000000e-02 0.000000000000e+00 
5.000000000000e-02 1.000000000000e+00 1.229918170984e-01 1.229918170984e-01 9.999999999277e-10 9.999999999277e-10 9.910363769784e+00 7.977177254435e+00 5.741200000000e-02 0.000000000000e+00 
5.500000000000e-02 1.000000000000e+00 1.229918170984e-01 1.229918170984e-01 9.999999999277e-10 9.999999999277e-10 9.910363769784e+00 7.977177254435e+00 5.741200000000e-02 0.000000000000e+00 
6.000000000000e-02 1.000000000000e+00 1.229918170984e-01 1.229918170984e-01 9.999999999277e-10 9.999999999277e-10 9.910363769784e+00 7.977177254435e+00 5.741200000000e-02 0.000000000000e+00 
6.500000000000e-02 1.000000000000e+00 1.229918170984e-01 1.229918170984e-01 9.999999999277e-10 9.999999999277e-10 9.910363769784e+00 7.977177254435e+00 5.741200000000e-02 0.000000000000e+00 
7.000000000000e-02 1.000000000000e+00 1.229918170984e-01 1.229918170984e-01 9.999999999277e-10 9.999999999277e-10 9.910363769784e+00 7.977177254435e+00 5.741200000000e-02 0.000000000000e+00 
7.500000000000e-02 1.000000000000e+00 1.229918170984e-01 1.229918170984e-01 9.999999999277e-10 9.999999999277e-10 9.910363769784e+00 7.977177254435e+00 5.741200000000e-02 0.000000000000e+00 
8.000000000000e-02 1.000000000000e+00 1.229918170984e-01 1.229918170984e-01 9.999999999277e-10 9.999999999277e-10 9.910363769784e+00 7.977177254435e+00 5.741200000000e-02 0.000000000000e+00 
8.500000000000e-02 1.000000000000e+00 1.229918170984e-01 1.229918170984e-01 9.999999999277e-10 9.999999999277e-10 9.910363769784e+00 7.977177254435e+00 5.741200000000e-02 0.000000000000e+00 
9.000000000000e-02 1.000000000000e+00 1.229918170984e-01 1.229918170984e-01 9.999999999277e-10 9.999999999277e-10 9.910363769784e+00 7.977177254435e+00 5.741200000000e-02 0.000000000000e+00 
9.500000000000e-02 1.000000000000e+00 1.229918170984e-01 1.229918170984e-01 9.999999999277e-10 9.999999999277e-10 9.910363769784e+00 7.977177254435e+00 5.741200000000e-02 0.000000000000e+00 
1.000000000000e-01 1.000000000000e+00 1.229918170984e-01 1.229918170984e-01 9.999999999277e-10 9.999999999277e-10 9.910363769784e+00 7.977177254435e+00 5.741200000000e-02 0.000000000000e+00 
1.050000000000e-01 1.000000000000e+00 1.229918170984e-01 1.229918170984e-01 9.999999999277e-10 9.999999999277e-10 9.910363769784e+00 7.977177254435e+00 5.741200000000e-02 0.000000000000e+00 
1.100000000000e-01 1.000000000000e+00 1.229918170984e-01 1.229918170984e-01 9.999999999277e-10 9.999999999277e-10 9.910363769784e+00 7.977177254435e+00 5.741200000000e-02 0.000000000000e+00 
1.150000000000e-01 1.000000000000e+00 1.229918170984e-01 1.229918170984e-01 9.999999999277e-10 9.999999999277e-10 9.910363769784e+00 7.977177254435e+00 5.741200000000e-02 0.000000000000e+00 
1.200000000000e-01 1.000000000000e+00 1.229918170984e-01 1.229918170984e-01 9.999999999277e-10 9.999999999277e-10 9.910363769784e+00 7.977177254435e+00 5.741200000000e-02 0.000000000000e+00 
1.250000000000e-01 1.000000000000e+00 1.229918170984e-01 1.229918170984e-01 9.999999999277e-10 9.999999999277e-10 9.910363769784e+00 7.977177254435e+00 5.741200000000e-02 0.000000000000e+00 
1.300000000000e-01 1.000000000000e+00 1.229918170984e-01 1.229918170984e-01 9.999999999277e-10 9.999999999277e-10 9.910363769784e+00 7.977177254435e+00 5.741200000000e-02 0.000000000000e+00 
1.350000000000e-01 1.000000000000e+00 1.229918170984e-01 1.229918170984e-01 9.999999999277e-10 9.999999999277e-10 9.910363769784e+00 7.977177254435e+00 5.741200000000e-02 0.000000000000e+00 
1.400000000000e-01 1.000000000000e+00 1.229918170984e-01 1.229918170984e-01 9.999999999277e-10 9.999999999277e-10 9.910363769784e+00 7.977177254435e+00 5.741200000000e-02 0.000000000000e+00 
1.450000000000e-01 1.000000000000e+00 1.229918170984e-01 1.229918170984e-01 9.999999999277e-10 9.999999999277e-10 9.910363769784e+00 7.977177254435e+00 5.741200000000e-02 0.000000000000e+00 
1.500000000000e-01 1.000000000000e+00 1.229918170984e-01 1.229918170984e-01 9.999999999277e-10 9.999999999277e-10 9.910363769784e+00 7.977177254435e+00 5.741200000000e-02 0.000000000000e+00 
1.550000000000e-01 1.000000000000e+00 1.229918170984e-01 1.229918170984e-01 9.999999999277e-10 9.999999999277e-10 9.910363769784e+00 7.977177254435e+00 5.741200000000e-02 0.000000000000e+00 
1.600000000000e-01 1.000000000000e+00 1.229918170984e-01 1.229918170984e-01 9.999999999277e-10 9.999999999277e-10 9.910363769784e+00 7.977177254435e+00 5.741200000000e-02 0.000000000000e+00 
1.650000000000e-01 1.000000000000e+00 1.229918170984e-01 1.229918170984e-01 9.999999999277e-10 9.999999999277e-10 9.910363769784e+00 7.977177254435e+00 5.741200000000e-02 0.000000000000e+00 
1.700000000000e-01 1.000000000000e+00 1.229918170984e-01 1.229918170984e-01 9.999999999277e-10 9.999999999277e-10 9.910363769784e+00 7.977177254435e+00 5.741200000000e-02 0.000000000000e+00 
1.750000000000e-01 1.000000000000e+00 1.229918170984e-01 1.229918170984e-01 9.999999999277e-10 9.999999999277e-10 9.910363769784e+00 7.977177254435e+00 5.741200000000e-02 0.000000000000e+00 
1.800000000000e-01 1.000000000000e+00 1.229918170984e-01 1.229918170984e-01 9.999999999277e-10 9.999999999277e-10 9.910363769784e+00 7.977177254435e+00 5.741200000000e-02 0.000000000000e+00 
1.850000000000e-01 1.000000000000e+00 1.229918170984e-01 1.229918170984e-01 9.999999999277e-10 9.999999999277e-10 9.910363769784e+00 7.977177254435e+00 5.741200000000e-02 0.000000000000e+00 
1.900000000000e-01 1.000000000000e+00 1.229918170984e-01 1.229918170984e-01 9.999999999277e-10 9.999999999277e-10 9.910363769784e+00 7.977177254435e+00 5.741200000000e-02 0.000000000000e+00 
1.950000000000e-01 1.000000000000e+00 1.229918170984e-01 1.229918170984e-01 9.999999999277e-10 9.999999999277e-10 9.910363769784e+00 7.977177254435e+00 5.741200000000e-02 0.000000000000e+00 
2.000000000000e-01 1.000000000000e+00 1.229918170984e-01 1.229918170984e-01 9.999999999277e-10 9.999999999277e-10 9.910363769784e+00 7.977177254435e+00 5.741200000000e-02 0.000000000000e+00 
2.050000000000e-01 1.000000000000e+00 1.229918170984e-01 1.229918170984e-01 9.999999999277e-10 9.999999999277e-10 9.910363769784e+00 7.977177254435e+00 5.741200000000e-02 0.000000000000e+00 
2.100000000000e-01 1.000000000000e+00 1.229918170984e-01 1.229918170984e-01 9.999999999277e-10 9.999999999277e-10 9.910363769784e+00 7.977177254435e+00 5.741200000000e-02 0.000000000000e+00 
2.150000000000e-01 1.000000000000e+00 1.229918170984e-01 1.229918170984e-01 9.999999999277e-10 9.999999999277e-10 9.910363769784e+00 7.977177254435e+00 5.741200000000e-02 0.000000000000e+00 
2.200000000000e-01 1.000000000000e+00 1.229918170984e-01 1.229918170984e-01 9.999999999277e-10 9.999999999277e-10 9.910363769784e+00 7.977177254435e+00 5.741200000000e-02 0.000000000000e+00 
2.250000000000e-01 1.000000000000e+00 1.229918170984e-01 1.229918170984e-01 9.999999999277e-10 9.999999999277e-10 9.910363769784e+00 7.977177254435e+00 5.741200000000e-02 0.000000000000e+00 
2.300000000000e-01 1.000000000000e+00 1.229918170984e-01 1.229918170984e-01 9.999999999277e-10 9.999999999277e-10 9.910363769784e+00 7.977177254435e+00 5.741200000000e-02 0.000000000000e+00 
2.350000000000e-01 1.000000000000e+00 1.229918170984e-01 1.229918170984e-01 9.999999999277e-10 9.999999999277e-10 9.910363769784e+00 7.977177254435e+00 5.741200000000e-02 0.000000000000e+00 
2.400000000000e-01 1.000000000000e+00 1.229918170984e-01 1.229918170984e-01 9.999999999277e-10 9.999999999277e-10 9.910363769784e+00 7.977177254435e+00 5.741200000000e-02 0.000000000000e+00 
2.450000000000e-01 1.000000000000e+00 1.229918170984e-01 1.229918170984e-01 9.999999999277e-10 9.999999999277e-10 9.910363769784e+00 7.977177254435e+00 5.741200000000e-02 0.000000000000e+00 
2.500000000000e-01 1.000000000000e+00 1.229918170984e-01 1.229918170984e-01 9.999999999277e-10 9.999999999277e-10 9.910363769784e+00 7.977177254435e+00 5.741200000000e-02 0.000000000000e+00 
2.550000000000e-01 1.000000000000e+00 1.229918170984e-01 1.229918170984e-01 9.999999999277e-10 9.999999999277e-10 9.910363769784e+00 7.977177254435e+00 5.741200000000e-02 0.000000000000e+00 
2.600000000000e-01 1.000000000000e+00 1.229918170984e-01 1.229918170984e-01 9.999999999277e-10 9.999999999277e-10 9.910363769784e+00 7.977177254435e+00 5.741200000000e-02 0.000000000000e+00 
2.650000000000e-01 1.000000000000e+00 1.229918170984e-01 1.229918170984e-01 9.999999999277e-10 9.999999999277e-10 9.910363769784e+00 7.977177254435e+00 5.741200000000e-02 0.000000000000e+00 
2.700000000000e-01 1.000000000000e+00 1.229918170984e-01 1.229918170984e-01 9.999999999277e-10 9.999999999277e-10 9.910363769784e+00 7.977177254435e+00 5.741200000000e-02 0.000000000000e+00 
2.750000000000e-01 1.000000000000e+00 1.229918170984e-01 1.229918170984e-01 9.999999999277e-10 9.999999999277e-10 9.910363769784e+00 7.977177254435e+00 5.741200000000e-02 0.000000000000e+00 
2.800000000000e-01 1.000000000000e+00 1.229918170984e-01 1.229918170984e-01 9.999999999277e-10 9.999999999277e-10 9.910363769784e+00 7.977177254435e+00 5.741200000000e-02 0.000000000000e+00 
2.850000000000e-01 1.000000000000e+00 1.229918170984e-01 1.229918170984e-01 9.999999999277e-10 9.999999999277e-10 9.910363769784e+00 7.977177254435e+00 5.741200000000e-02 0.000000000000e+00 
2.900000000000e-01 1.000000000000e+00 1.229918170984e-01 1.229918170984e-01 9.999999999277e-10 9.999999999277e-10 9.910363769784e+00 7.977177254435e+00 5.741200000000e-02 0.000000000000e+00 
2.950000000000e-01 1.000000000000e+00 1.229918170984e-01 1.229918170984e-01 9.999999999277e-10 9.999999999277e-10 9.910363769784e+00 7.977177254435e+00 5.741200000000e-02 0.000000000000e+00 
3.000000000000e-01 1.000000000000e+00 1.229918170984e-01 1.229918170984e-01 9.999999999277e-10 9.999999999277e-10 9.910363769784e+00 7.977177254435e+00 5.741200000000e-02 0.000000000000e+00 
3.050000000000e-01 1.000000000000e+00 1.229918170984e-01 1.229918170984e-01 9.999999999277e-10 9.999999999277e-10 9.910363769784e+00 7.977177254435e+00 5.741200000000e-02 0.000000000000e+00 
3.100000000000e-01 1.000000000000e+00 1.229918170984e-01 1.229918170984e-01 9.999999999277e-10 9.999999999277e-10 9.910363769784e+00 7.977177254435e+00 5.741200000000e-02 0.000000000000e+00 
3.150000000000e-01 1.000000000000e+00 1.229918170984e-01 1.229918170984e-01 9.999999999277e-10 9.999999999277e-10 9.910363769784e+00 7.977177254435e+00 5.741200000000e-02 0.000000000000e+00 
3.200000000000e-01 1.000000000000e+00 1.229918170984e-01 1.229918170984e-01 9.999999999277e-10 9.999999999277e-10 9.910363769784e+00 7.977177254435e+00 5.741200000000e-02 0.000000000000e+00 
3.250000000000e-01 1.000000000000e+00 1.229918170984e-01 1.229918170984e-01 9.999999999277e-10 9.999999999277e-10 9.910363769784e+00 7.977177254435e+00 5.741200000000e-02 0.000000000000e+00 
3.300000000000e-01 1.000000000000e+00 1.229918170984e-01 1.229918170984e-01 9.999999999277e-10 9.999999999277e-10 9.910363769784e+00 7.977177254435e+00 5.741200000000e-02 0.000000000000e+00 
3.350000000000e-01 1.000000000000e+00 1.229918170984e-01 1.229918170984e-01 9.999999999277e-10 9.999999999277e-10 9.910363769784e+00 7.977177254435e+00 5.741200000000e-02 0.000000000000e+00 
3.400000000000e-01 1.000000000000e+00 1.229918170984e-01 1.229918170984e-01 9.999999999277e-10 9.999999999277e-10 9.910363769784e+00 7.977177254435e+00 5.741200000000e-02 0.000000000000e+00 
3.450000000000e-01 1.000000000000e+00 1.229918170984e-01 1.229918170984e-01 9.999999999277e-10 9.999999999277e-10 9.910363769784e+00 7.977177254435e+00 5.741200000000e-02 0.000000000000e+00 
3.500000000000e-01 1.000000000000e+00 1.229918170984e-01 1.229918170984e-01 9.999999999277e-10 9.999999999277e-10 9.910363769784e+00 7.977177254435e+00 5.741200000000e-02 0.000000000000e+00 
3.550000000000e-01 1.000000000000e+00 1.229918170984e-01 1.229918170984e-01 9.999999999277e-10 9.999999999277e-10 9.910363769784e+00 7.977177254435e+00 5.741200000000e-02 0.000000000000e+00 
3.600000000000e-01 1.000000000000e+00 1.229918170984e-01 1.229918170984e-01 9.999999999277e-10 9.999999999277e-10 9.910363769784e+00 7.977177254435e+00 5.741200000000e-02 0.000000000000e+00 
3.650000000000e-01 1.000000000000e+00 1.229918170984e-01 1.229918170984e-01 9.999999999277e-10 9.999999999277e-10 9.910363769784e+00 7.977177254435e+00 5.741200000000e-02 0.000000000000e+00 
3.700000000000e-01 1.000000000000e+00 1.229918170984e-01 1.229918170984e-01 9.999999999277e-10 9.999999999277e-10 9.910363769784e+00 7.977177254435e+00 5.741200000000e-02 0.000000000000e+00 
3.750000000000e-01 1.000000000000e+00 1.229918170984e-01 1.229918170984e-01 9.999999999277e-10 9.999999999277e-10 9.910363769784e+00 7.977177254435e+00 5.741200000000e-02 0.000000000000e+00 
3.800000000000e-01 1.000000000000e+00 1.229918170984e-01 1.229918170984e-01 9.999999999277e-10 9.999999999277e-10 9.910363769784e+00 7.977177254435e+00 5.741200000000e-02 0.000000000000e+00 
3.850000000000e-01 1.000000000000e+00 1.229918170984e-01 1.229918170984e-01 9.999999999277e-10 9.999999999277e-10 9.910363769784e+00 7.977177254435e+00 5.741200000000e-02 0.000000000000e+00 
3.900000000000e-01 1.000000000000e+00 1.229918170984e-01 1.229918170984e-01 9.999999999277e-10 9.999999999277e-10 9.910363769784e+00 7.977177254435e+00 5.741200000000e-02 0.000000000000e+00 
3.950000000000e-01 1.000000000000e+00 1.229918170984e-01 1.229918170984e-01 9.999999999277e-10 9.999999999277e-10 9.910363769784e+00 7.977177254435e+00 5.741200000000e-02 0.000000000000e+00 
4.000000000000e-01 1.000000000000e+00 1.229918170984e-01 1.229918170984e-01 9.999999999277e-10 9.999999999277e-10 9.910363769784e+00 7.977177254435e+00 5.741200000000e-02 0.000000000000e+00 
4.050000000000e-01 1.000000000000e+00 1.229918170984e-01 1.229918170984e-01 9.999999999277e-10 9.999999999277e-10 9.910363769784e+00 7.977177254435e+00 5.741200000000e-02 0.000000000000e+00 
4.100000000000e-01 1.000000000000e+00 1.229918170984e-01 1.229918170984e-01 9.999999999277e-10 9.999999999277e-10 9.910363769784e+00 7.977177254435e+00 5.741200000000e-02 0.000000000000e+00 
4.150000000000e-01 1.000000000000e+00 1.229918170984e-01 1.229918170984e-01 9.999999999277e-10 9.999999999277e-10 9.910363769784e+00 7.977177254435e+00 5.741200000000e-02 0.000000000000e+00 
4.200000000000e-01 1.000000000000e+00 1.229918170984e-01 1.229918170984e-01 9.999999999277e-10 9.999999999277e-10 9.910363769784e+00 7.977177254435e+00 5.741200000000e-02 0.000000000000e+00 
4.250000000000e-01 1.000000000000e+00 1.229918170984e-01 1.229918170984e-01 9.999999999277e-10 9.999999999277e-10 9.910363769784e+00 7.977177254435e+00 5.741200000000e-02 0.000000000000e+00 
4.300000000000e-01 1.000000000000e+00 1.229918170984e-01 1.229918170984e-01 9.999999999277e-10 9.999999999277e-10 9.910363769784e+00 7.977177254435e+00 5.741200000000e-02 0.000000000000e+00 
4.350000000000e-01 1.000000000000e+00 1.229918170984e-01 1.229918170984e-01 9.999999999277e-10 9.999999999277e-10 9.910363769784e+00 7.977177254435e+00 5.741200000000e-02 0.000000000000e+00 
4.400000000000e-01 1.000000000000e+00 1.229918170984e-01 1.229918170984e-01 9.999999999277e-10 9.999999999277e-10 9.910363769784e+00 7.977177254435e+00 5.741200000000e-02 0.000000000000e+00 
4.450000000000e-01 1.000000000000e+00 1.229918170984e-01 1.229918170984e-01 9.999999999277e-10 9.999999999277e-10 9.910363769784e+00 7.977177254435e+00 5.741200000000e-02 0.000000000000e+00 
4.500000000000e-01 1.000000000000e+00 1.229918170984e-01 1.229918170984e-01 9.999999999277e-10 9.999999999277e-10 9.910363769784e+00 7.977177254435e+00 5.741200000000e-02 0.000000000000e+00 
4.550000000000e-01 1.000000000000e+00 1.229918170984e-01 1.229918170984e-01 9.999999999277e-10 9.999999999277e-10 9.910363769784e+00 7.977177254435e+00 5.741200000000e-02 0.000000000000e+00 
4.600000000000e-01 1.000000000000e+00 1.229918170984e-01 1.229918170984e-01 9.999999999277e-10 9.999999999277e-10 9.910363769784e+00 7.977177254435e+00 5.741200000000e-02 0.000000000000e+00 
4.650000000000e-01 1.000000000000e+00 1.229918170984e-01 1.229918170984e-01 9.999999999277e-10 9.999999999277e-10 9.910363769784e+00 7.977177254435e+00 5.741200000000e-02 0.000000000000e+00 
4.700000000000e-01 1.000000000000e+00 1.229918170984e-01 1.229918170984e-01 9.999999999277e-10 9.999999999277e-10 9.910363769784e+00 7.977177254435e+00 5.741200000000e-02 0.000000000000e+00 
4.750000000000e-01 1.000000000000e+00 1.229918170984e-01 1.229918170984e-01 9.999999999277e-10 9.999999999277e-10 9.910363769784e+00 7.977177254435e+00 5.741200000000e-02 0.000000000000e+00 
4.800000000000e-01 1.000000000000e+00 1.229918170984e-01 1.229918170984e-01 9.999999999277e-10 9.999999999277e-10 9.910363769784e+00 7.977177254435e+00 5.741200000000e-02 0.000000000000e+00 
4.850000000000e-01 1.000000000000e+00 1.229918170984e-01 1.229918170984e-01 9.999999999277e-10 9.999999999277e-10 9.910363769784e+00 7.977177254435e+00 5.741200000000e-02 0.000000000000e+00 
4.900000000000e-01 1.000000000000e+00 1.229918170984e-01 1.229918170984e-01 9.999999999277e-10 9.999999999277e-10 9.910363769784e+00 7.977177254435e+00 5.741200000000e-02 0.000000000000e+00 
4.950000000000e-01 1.000000000000e+00 1.229918170984e-01 1.229918170984e-01 9.999999999277e-10 9.999999999277e-10 9.910363769784e+00 7.977177254435e+00 5.741200000000e-02 0.000000000000e+00 
5.000000000000e-01 1.000000000000e+00 1.229918170984e-01 1.229918170984e-01 9.999999999277e-10 9.999999999277e-10 9.910363769784e+00 7.977177254435e+00 5.741200000000e-02 0.000000000000e+00 
 TITLE = "Profiles along polylines"
 VARIABLES = "DIST" "HEAD" "C(4)" "Ca" "Mg" "Cl" "pH" "pe" "Calcite" "Dolomite(dis)" 
 ZONE T="TIME=1.000000000000e+02"
0.000000000000e+00 1.000000000000e+05 1.962303221242e-03 1.962303221146e-03 1.000000032875e+00 2.000000065749e+00 8.159645924126e+00 -2.654031564410e+00 5.648861027925e-02 0.000000000000e+00 
5.000000000000e-03 8.704543993084e+04 1.222594751427e-01 1.222594751427e-01 6.207585887252e-03 1.241517078071e-02 9.907197740375e+00 8.263049283816e+00 5.739734610094e-02 0.000000000000e+00 
1.000000000000e-02 7.409087986168e+04 1.229794374381e-01 1.229794374381e-01 3.853511014680e-05 7.706922033214e-05 9.910324475686e+00 7.991696666127e+00 5.741559542381e-02 0.000000000000e+00 
1.500000000000e-02 6.113631979252e+04 1.229839044698e-01 1.229839044698e-01 2.402037605805e-07 4.794075214003e-07 9.910343873406e+00 8.033438228642e+00 5.741570974113e-02 0.000000000000e+00 
2.000000000000e-02 4.818175972336e+04 1.229839321992e-01 1.229839321992e-01 2.484877755084e-09 3.969755511794e-09 9.910343993818e+00 8.146529537342e+00 5.741571045082e-02 0.000000000000e+00 
2.500000000000e-02 3.522719965420e+04 1.229839323714e-01 1.229839323714e-01 1.009217442111e-09 1.018434884373e-09 9.910343994566e+00 7.995706837622e+00 5.741571045525e-02 0.000000000000e+00 
3.000000000000e-02 2.227263958504e+04 1.229839323724e-01 1.229839323724e-01 1.000057212831e-09 1.000114425804e-09 9.910343994570e+00 7.931757342019e+00 5.741571045525e-02 0.000000000000e+00 
3.500000000000e-02 9.318079515885e+03 1.229839323724e-01 1.229839323724e-01 1.000000356835e-09 1.000000713812e-09 9.910343994570e+00 7.931764673772e+00 5.741571045525e-02 0.000000000000e+00 
4.000000000000e-02 -3.636480553274e+03 1.229839323724e-01 1.229839323724e-01 1.000000002124e-09 1.000000004390e-09 9.910343994570e+00 7.931765493897e+00 5.741571045525e-02 0.000000000000e+00 
4.500000000000e-02 -1.659104062243e+04 1.229839323724e-01 1.229839323724e-01 9.999999998581e-10 9.999999998581e-10 9.910343994570e+00 7.931770113667e+00 5.741571045525e-02 0.000000000000e+00 
5.000000000000e-02 -2.954560069159e+04 1.229839323724e-01 1.229839323724e-01 9.999999998581e-10 9.999999998581e-10 9.910343994570e+00 7.931770113667e+00 5.741571045525e-02 0.000000000000e+00 
5.500000000000e-02 -4.250016076075e+04 1.229839323724e-01 1.229839323724e-01 9.999999998581e-10 9.999999998581e-10 9.910343994570e+00 7.931770113667e+00 5.741571045525e-02 0.000000000000e+00 
6.000000000000e-02 -5.545472082991e+04 1.229839323724e-01 1.229839323724e-01 9.999999998581e-10 9.999999998581e-10 9.910343994570e+00 7.931770113667e+00 5.741571045525e-02 0.000000000000e+00 
6.500000000000e-02 -6.840928089907e+04 1.229839323724e-01 1.229839323724e-01 9.999999998581e-10 9.999999998581e-10 9.910343994570e+00 7.931770113667e+00 5.741571045525e-02 0.000000000000e+00 
7.000000000000e-02 -8.136384096823e+04 1.229839323724e-01 1.229839323724e-01 9.999999998581e-10 9.999999998581e-10 9.910343994570e+00 7.931770113667e+00 5.741571045525e-02 0.000000000000e+00 
7.500000000000e-02 -9.431840103739e+04 1.229839323724e-01 1.229839323724e-01 9.999999998581e-10 9.999999998581e-10 9.910343994570e+00 7.931770113667e+00 5.741571045525e-02 0.000000000000e+00 
8.000000000000e-02 -1.072729611065e+05 1.229839323724e-01 1.229839323724e-01 9.999999998581e-10 9.999999998581e-10 9.910343994570e+00 7.931770113667e+00 5.741571045525e-02 0.000000000000e+00 
8.500000000000e-02 -1.202275211757e+05 1.229839323724e-01 1.229839323724e-01 9.999999998581e-10 9.999999998581e-10 9.910343994570e+00 7.931770113667e+00 5.741571045525e-02 0.000000000000e+00 
9.000000000000e-02 -1.331820812449e+05 1.229839323724e-01 1.229839323724e-01 9.999999998581e-10 9.999999998581e-10 9.910343994570e+00 7.931770113667e+00 5.741571045525e-02 0.000000000000e+00 
9.500000000000e-02 -1.461366413140e+05 1.229839323724e-01 1.229839323724e-01 9.999999998581e-10 9.999999998581e-10 9.910343994570e+00 7.931770113667e+00 5.741571045525e-02 0.000000000000e+00 
1.000000000000e-01 -1.590912013832e+05 1.229839323724e-01 1.229839323724e-01 9.999999998581e-10 9.999999998581e-10 9.910343994570e+00 7.931770113667e+00 5.741571045525e-02 0.000000000000e+00 
1.050000000000e-01 -1.720457614523e+05 1.229839323724e-01 1.229839323724e-01 9.999999998581e-10 9.999999998581e-10 9.910343994570e+00 7.931770113667e+00 5.741571045525e-02 0.000000000000e+00 
1.100000000000e-01 -1.850003215215e+05 1.229839323724e-01 1.229839323724e-01 9.999999998581e-10 9.999999998581e-10 9.910343994570e+00 7.931770113667e+00 5.741571045525e-02 0.000000000000e+00 
1.150000000000e-01 -1.979548815906e+05 1.229839323724e-01 1.229839323724e-01 9.999999998581e-10 9.999999998581e-10 9.910343994570e+00 7.931770113667e+00 5.741571045525e-02 0.000000000000e+00 
1.200000000000e-01 -2.109094416598e+05 1.229839323724e-01 1.229839323724e-01 9.999999998581e-10 9.999999998581e-10 9.910343994570e+00 7.931770113667e+00 5.741571045525e-02 0.000000000000e+00 
1.250000000000e-01 -2.238640017290e+05 1.229839323724e-01 1.229839323724e-01 9.999999998581e-10 9.999999998581e-10 9.910343994570e+00 7.931770113667e+00 5.741571045525e-02 0.000000000000e+00 
1.300000000000e-01 -2.368185617981e+05 1.229839323724e-01 1.229839323724e-01 9.999999998581e-10 9.999999998581e-10 9.910343994570e+00 7.931770113667e+00 5.741571045525e-02 0.000000000000e+00 
1.350000000000e-01 -2.497731218673e+05 1.229839323724e-01 1.229839323724e-01 9.999999998581e-10 9.999999998581e-10 9.910343994570e+00 7.931770113667e+00 5.741571045525e-02 0.000000000000e+00 
1.400000000000e-01 -2.627276819364e+05 1.229839323724e-01 1.229839323724e-01 9.999999998581e-10 9.999999998581e-10 9.910343994570e+00 7.931770113667e+00 5.741571045525e-02 0.000000000000e+00 
1.450000000000e-01 -2.756822420056e+05 1.229839323724e-01 1.229839323724e-01 9.999999998581e-10 9.999999998581e-10 9.910343994570e+00 7.931770113667e+00 5.741571045525e-02 0.000000000000e+00 
1.500000000000e-01 -2.886368020747e+05 1.229839323724e-01 1.229839323724e-01 9.999999998581e-10 9.999999998581e-10 9.910343994570e+00 7.931770113667e+00 5.741571045525e-02 0.000000000000e+00 
1.550000000000e-01 -3.015913621439e+05 1.229839323724e-01 1.229839323724e-01 9.999999998581e-10 9.999999998581e-10 9.910343994570e+00 7.931770113667e+00 5.741571045525e-02 0.000000000000e+00 
1.600000000000e-01 -3.145459222131e+05 1.229839323724e-01 1.229839323724e-01 9.999999998581e-10 9.999999998581e-10 9.910343994570e+00 7.931770113667e+00 5.741571045525e-02 0.000000000000e+00 
1.650000000000e-01 -3.275004822822e+05 1.229839323724e-01 1.229839323724e-01 9.999999998581e-10 9.999999998581e-10 9.910343994570e+00 7.931770113667e+00 5.741571045525e-02 0.000000000000e+00 
1.700000000000e-01 -3.404550423514e+05 1.229839323724e-01 1.229839323724e-01 9.999999998581e-10 9.999999998581e-10 9.910343994570e+00 7.931770113667e+00 5.741571045525e-02 0.000000000000e+00 
1.750000000000e-01 -3.534096024205e+05 1.229839323724e-01 1.229839323724e-01 9.999999998581e-10 9.999999998581e-10 9.910343994570e+00 7.931770113667e+00 5.741571045525e-02 0.000000000000e+00 
1.800000000000e-01 -3.663641624897e+05 1.229839323724e-01 1.229839323724e-01 9.999999998581e-10 9.999999998581e-10 9.910343994570e+00 7.931770113667e+00 5.741571045525e-02 0.000000000000e+00 
1.850000000000e-01 -3.793187225588e+05 1.229839323724e-01 1.229839323724e-01 9.999999998581e-10 9.999999998581e-10 9.910343994570e+00 7.931770113667e+00 5.741571045525e-02 0.000000000000e+00 
1.900000000000e-01 -3.922732826280e+05 1.229839323724e-01 1.229839323724e-01 9.999999998581e-10 9.999999998581e-10 9.910343994570e+00 7.931770113667e+00 5.741571045525e-02 0.000000000000e+00 
1.950000000000e-01 -4.052278426971e+05 1.229839323724e-01 1.229839323724e-01 9.999999998581e-10 9.999999998581e-10 9.910343994570e+00 7.931770113667e+00 5.741571045525e-02 0.000000000000e+00 
2.000000000000e-01 -4.181824027663e+05 1.229839323724e-01 1.229839323724e-01 9.999999998581e-10 9.999999998581e-10 9.910343994570e+00 7.931770113667e+00 5.741571045525e-02 0.000000000000e+00 
2.050000000000e-01 -4.311369628355e+05 1.229839323724e-01 1.229839323724e-01 9.999999998581e-10 9.999999998581e-10 9.910343994570e+00 7.931770113667e+00 5.741571045525e-02 0.000000000000e+00 
2.100000000000e-01 -4.440915229046e+05 1.229839323724e-01 1.229839323724e-01 9.999999998581e-10 9.999999998581e-10 9.910343994570e+00 7.931770113667e+00 5.741571045525e-02 0.000000000000e+00 
2.150000000000e-01 -4.570460829738e+05 1.229839323724e-01 1.229839323724e-01 9.999999998581e-10 9.999999998581e-10 9.910343994570e+00 7.931770113667e+00 5.741571045525e-02 0.000000000000e+00 
2.200000000000e-01 -4.700006430429e+05 1.229839323724e-01 1.229839323724e-01 9.999999998581e-10 9.999999998581e-10 9.910343994570e+00 7.931770113667e+00 5.741571045525e-02 0.000000000000e+00 
2.250000000000e-01 -4.829552031121e+05 1.229839323724e-01 1.229839323724e-01 9.999999998581e-10 9.999999998581e-10 9.910343994570e+00 7.931770113667e+00 5.741571045525e-02 0.000000000000e+00 
2.300000000000e-01 -4.959097631812e+05 1.229839323724e-01 1.229839323724e-01 9.999999998581e-10 9.999999998581e-10 9.910343994570e+00 7.931770113667e+00 5.741571045525e-02 0.000000000000e+00 
2.350000000000e-01 -5.088643232504e+05 1.229839323724e-01 1.229839323724e-01 9.999999998581e-10 9.999999998581e-10 9.910343994570e+00 7.931770113667e+00 5.741571045525e-02 0.000000000000e+00 
2.400000000000e-01 -5.218188833195e+05 1.229839323724e-01 1.229839323724e-01 9.999999998581e-10 9.999999998581e-10 9.910343994570e+00 7.931770113667e+00 5.741571045525e-02 0.000000000000e+00 
2.450000000000e-01 -5.347734433887e+05 1.229839323724e-01 1.229839323724e-01 9.999999998581e-10 9.999999998581e-10 9.910343994570e+00 7.931770113667e+00 5.741571045525e-02 0.000000000000e+00 
2.500000000000e-01 -5.477280034578e+05 1.229839323724e-01 1.229839323724e-01 9.999999998581e-10 9.999999998581e-10 9.910343994570e+00 7.931770113667e+00 5.741571045525e-02 0.000000000000e+00 
2.550000000000e-01 -5.606825635270e+05 1.229839323724e-01 1.229839323724e-01 9.999999998581e-10 9.999999998581e-10 9.910343994570e+00 7.931770113667e+00 5.741571045525e-02 0.000000000000e+00 
2.600000000000e-01 -5.736371235961e+05 1.229839323724e-01 1.229839323724e-01 9.999999998581e-10 9.999999998581e-10 9.910343994570e+00 7.931770113667e+00 5.741571045525e-02 0.000000000000e+00 
2.650000000000e-01 -5.865916836653e+05 1.229839323724e-01 1.229839323724e-01 9.999999998581e-10 9.999999998581e-10 9.910343994570e+00 7.931770113667e+00 5.741571045525e-02 0.000000000000e+00 