<?xml version="1.0"?>
<!-- Time step: 90 | Time: 3.240000000000e+05 -->
<VTKFile type="UnstructuredGrid" version="0.1" byte_order="LittleEndian">
  <UnstructuredGrid>
    <Piece NumberOfPoints="95" NumberOfCells="94">
      <Points>
        <DataArray type="Float64" NumberOfComponents="3" format="ascii">
          0.000000000000e+00 0.000000000000e+00 0.000000000000e+00
          5.000000000000e-02 0.000000000000e+00 0.000000000000e+00
          1.000000000000e-01 0.000000000000e+00 0.000000000000e+00
          1.500000000000e-01 0.000000000000e+00 0.000000000000e+00
          2.000000000000e-01 0.000000000000e+00 0.000000000000e+00
          2.500000000000e-01 0.000000000000e+00 0.000000000000e+00
          3.000000000000e-01 0.000000000000e+00 0.000000000000e+00
          3.500000000000e-01 0.000000000000e+00 0.000000000000e+00
          4.000000000000e-01 0.000000000000e+00 0.000000000000e+00
          4.500000000000e-01 0.000000000000e+00 0.000000000000e+00
          5.000000000000e-01 0.000000000000e+00 0.000000000000e+00
          5.500000000000e-01 0.000000000000e+00 0.000000000000e+00
          6.000000000000e-01 0.000000000000e+00 0.000000000000e+00
          6.500000000000e-01 0.000000000000e+00 0.000000000000e+00
          7.000000000000e-01 0.000000000000e+00 0.000000000000e+00
          7.500000000000e-01 0.000000000000e+00 0.000000000000e+00
          8.000000000000e-01 0.000000000000e+00 0.000000000000e+00
          8.500000000000e-01 0.000000000000e+00 0.000000000000e+00
          9.000000000000e-01 0.000000000000e+00 0.000000000000e+00
          9.500000000000e-01 0.000000000000e+00 0.000000000000e+00
          1.000000000000e+00 0.000000000000e+00 0.000000000000e+00
          1.050000000000e+00 0.000000000000e+00 0.000000000000e+00
          1.100000000000e+00 0.000000000000e+00 0.000000000000e+00
          1.150000000000e+00 0.000000000000e+00 0.000000000000e+00
          1.200000000000e+00 0.000000000000e+00 0.000000000000e+00
          1.250000000000e+00 0.000000000000e+00 0.000000000000e+00
          1.300000000000e+00 0.000000000000e+00 0.000000000000e+00
          1.350000000000e+00 0.000000000000e+00 0.000000000000e+00
          1.400000000000e+00 0.000000000000e+00 0.000000000000e+00
          1.450000000000e+00 0.000000000000e+00 0.000000000000e+00
          1.500000000000e+00 0.000000000000e+00 0.000000000000e+00
          1.550000000000e+00 0.000000000000e+00 0.000000000000e+00
          1.600000000000e+00 0.000000000000e+00 0.000000000000e+00
          1.650000000000e+00 0.000000000000e+00 0.000000000000e+00
          1.700000000000e+00 0.000000000000e+00 0.000000000000e+00
          1.750000000000e+00 0.000000000000e+00 0.000000000000e+00
          1.800000000000e+00 0.000000000000e+00 0.000000000000e+00
          1.850000000000e+00 0.000000000000e+00 0.000000000000e+00
          1.900000000000e+00 0.000000000000e+00 0.000000000000e+00
          1.950000000000e+00 0.000000000000e+00 0.000000000000e+00
          2.000000000000e+00 0.000000000000e+00 0.000000000000e+00
          2.050000000000e+00 0.000000000000e+00 0.000000000000e+00
          2.100000000000e+00 0.000000000000e+00 0.000000000000e+00
          2.150000000000e+00 0.000000000000e+00 0.000000000000e+00
          2.200000000000e+00 0.000000000000e+00 0.000000000000e+00
          2.250000000000e+00 0.000000000000e+00 0.000000000000e+00
          2.300000000000e+00 0.000000000000e+00 0.000000000000e+00
          2.350000000000e+00 0.000000000000e+00 0.000000000000e+00
          2.400000000000e+00 0.000000000000e+00 0.000000000000e+00
          2.450000000000e+00 0.000000000000e+00 0.000000000000e+00
          2.500000000000e+00 0.000000000000e+00 0.000000000000e+00
          2.550000000000e+00 0.000000000000e+00 0.000000000000e+00
          2.600000000000e+00 0.000000000000e+00 0.000000000000e+00
          2.650000000000e+00 0.000000000000e+00 0.000000000000e+00
          2.700000000000e+00 0.000000000000e+00 0.000000000000e+00
          2.750000000000e+00 0.000000000000e+00 0.000000000000e+00
          2.800000000000e+00 0.000000000000e+00 0.000000000000e+00
          2.850000000000e+00 0.000000000000e+00 0.000000000000e+00
          2.900000000000e+00 0.000000000000e+00 0.000000000000e+00
          2.950000000000e+00 0.000000000000e+00 0.000000000000e+00
          3.000000000000e+00 0.000000000000e+00 0.000000000000e+00
          3.050000000000e+00 0.000000000000e+00 0.000000000000e+00
          3.100000000000e+00 0.000000000000e+00 0.000000000000e+00
          3.150000000000e+00 0.000000000000e+00 0.000000000000e+00
          3.200000000000e+00 0.000000000000e+00 0.000000000000e+00
          3.250000000000e+00 0.000000000000e+00 0.000000000000e+00
          3.300000000000e+00 0.000000000000e+00 0.000000000000e+00
          3.350000000000e+00 0.000000000000e+00 0.000000000000e+00
          3.400000000000e+00 0.000000000000e+00 0.000000000000e+00
          3.450000000000e+00 0.000000000000e+00 0.000000000000e+00
          3.500000000000e+00 0.000000000000e+00 0.000000000000e+00
          3.550000000000e+00 0.000000000000e+00 0.000000000000e+00
          3.600000000000e+00 0.000000000000e+00 0.000000000000e+00
          3.650000000000e+00 0.000000000000e+00 0.000000000000e+00
          3.700000000000e+00 0.000000000000e+00 0.000000000000e+00
          3.750000000000e+00 0.000000000000e+00 0.000000000000e+00
          3.800000000000e+00 0.000000000000e+00 0.000000000000e+00
          3.850000000000e+00 0.000000000000e+00 0.000000000000e+00
          3.900000000000e+00 0.000000000000e+00 0.000000000000e+00
          3.950000000000e+00 0.000000000000e+00 0.000000000000e+00
          4.000000000000e+00 0.000000000000e+00 0.000000000000e+00
          4.050000000000e+00 0.000000000000e+00 0.000000000000e+00
          4.100000000000e+00 0.000000000000e+00 0.000000000000e+00
          4.150000000000e+00 0.000000000000e+00 0.000000000000e+00
          4.200000000000e+00 0.000000000000e+00 0.000000000000e+00
          4.250000000000e+00 0.000000000000e+00 0.000000000000e+00
          4.300000000000e+00 0.000000000000e+00 0.000000000000e+00
          4.350000000000e+00 0.000000000000e+00 0.000000000000e+00
          4.400000000000e+00 0.000000000000e+00 0.000000000000e+00
          4.450000000000e+00 0.000000000000e+00 0.000000000000e+00
          4.500000000000e+00 0.000000000000e+00 0.000000000000e+00
          4.550000000000e+00 0.000000000000e+00 0.000000000000e+00
          4.600000000000e+00 0.000000000000e+00 0.000000000000e+00
          4.650000000000e+00 0.000000000000e+00 0.000000000000e+00
          4.700000000000e+00 0.000000000000e+00 0.000000000000e+00
        </DataArray>
      </Points>
      <Cells>
        <DataArray type="Int64" Name="connectivity" format="ascii">
          0 1 
          1 2 
          2 3 
          3 4 
          4 5 
          5 6 
          6 7 
          7 8 
          8 9 
          9 10 
          10 11 
          11 12 
          12 13 
          13 14 
          14 15 
          15 16 
          16 17 
          17 18 
          18 19 
          19 20 
          20 21 
          21 22 
          22 23 
          23 24 
          24 25 
          25 26 
          26 27 
          27 28 
          28 29 
          29 30 
          30 31 
          31 32 
          32 33 
          33 34 
          34 35 
          35 36 
          36 37 
          37 38 
          38 39 
          39 40 
          40 41 
          41 42 
          42 43 
          43 44 
          44 45 
          45 46 
          46 47 
          47 48 
          48 49 
          49 50 
          50 51 
          51 52 
          52 53 
          53 54 
          54 55 
          55 56 
          56 57 
          57 58 
          58 59 
          59 60 
          60 61 
          61 62 
          62 63 
          63 64 
          64 65 
          65 66 
          66 67 
          67 68 
          68 69 
          69 70 
          70 71 
          71 72 
          72 73 
          73 74 
          74 75 
          75 76 
          76 77 
          77 78 
          78 79 
          79 80 
          80 81 
          81 82 
          82 83 
          83 84 
          84 85 
          85 86 
          86 87 
          87 88 
          88 89 
          89 90 
          90 91 
          91 92 
          92 93 
          93 94 
        </DataArray>
        <DataArray type="Int64" Name="offsets" format="ascii">
          2 4 6 8 10 12 14 16 18 20 22 24 26 28 30 32 34 36 38 40 42 44 46 48 50 52 54 56 58 60 62 64 66 68 70 72 74 76 78 80 82 84 86 88 90 92 94 96 98 100 102 104 106 108 110 112 114 116 118 120 122 124 126 128 130 132 134 136 138 140 142 144 146 148 150 152 154 156 158 160 162 164 166 168 170 172 174 176 178 180 182 184 186 188 
        </DataArray>
        <DataArray type="UInt8" Name="types" format="ascii">
          3 3 3 3 3 3 3 3 3 3 3 3 3 3 3 3 3 3 3 3 3 3 3 3 3 3 3 3 3 3 3 3 3 3 3 3 3 3 3 3 3 3 3 3 3 3 3 3 3 3 3 3 3 3 3 3 3 3 3 3 3 3 3 3 3 3 3 3 3 3 3 3 3 3 3 3 3 3 3 3 3 3 3 3 3 3 3 3 3 3 3 3 3 3 
        </DataArray>
      </Cells>
      <PointData Scalars="PRESSURE1">
        <DataArray type="Float64" Name="PRESSURE1" format="ascii">
          9.813078930834e+03 9.813046176250e+03 9.813013421667e+03 9.812980667084e+03 9.812947912500e+03 9.812915157917e+03 9.812882403334e+03 9.812849648750e+03 9.812816894167e+03 9.812784139584e+03 9.812751385000e+03 9.812718630417e+03 9.812685875834e+03 9.812653121250e+03 9.812620366667e+03 9.812587612084e+03 9.812554857500e+03 9.812522102917e+03 9.812489348334e+03 9.812456593750e+03 9.812423839167e+03 9.812391084584e+03 9.812358330000e+03 9.812325575417e+03 9.812292820834e+03 9.812260066250e+03 9.812227311667e+03 9.812194557084e+03 9.812161802500e+03 9.812129047917e+03 9.812096293334e+03 9.812063538750e+03 9.812030784167e+03 9.811998029584e+03 9.811965275000e+03 9.811932520417e+03 9.811899765834e+03 9.811867011250e+03 9.811834256667e+03 9.811801502084e+03 9.811768747500e+03 9.811735992917e+03 9.811703238334e+03 9.811670483750e+03 9.811637729167e+03 9.811604974584e+03 9.811572220000e+03 9.811539465417e+03 9.811506710834e+03 9.811473956250e+03 9.811441201667e+03 9.811408447084e+03 9.811375692500e+03 9.811342937917e+03 9.811310183334e+03 9.811277428750e+03 9.811244674167e+03 9.811211919584e+03 9.811179165000e+03 9.811146410417e+03 9.811113655834e+03 9.811080901250e+03 9.811048146667e+03 9.811015392084e+03 9.810982637500e+03 9.810949882917e+03 9.810917128334e+03 9.810884373750e+03 9.810851619167e+03 9.810818864584e+03 9.810786110000e+03 9.810753355417e+03 9.810720600834e+03 9.810687846250e+03 9.810655091667e+03 9.810622337084e+03 9.810589582500e+03 9.810556827917e+03 9.810524073334e+03 9.810491318750e+03 9.810458564167e+03 9.810425809584e+03 9.810393055000e+03 9.810360300417e+03 9.810327545834e+03 9.810294791250e+03 9.810262036667e+03 9.810229282083e+03 9.810196527500e+03 9.810163772917e+03 9.810131018333e+03 9.810098263750e+03 9.810065509167e+03 9.810032754583e+03 9.810000000000e+03 
        </DataArray>
        <DataArray type="Float64" Name="NODAL_VELOCITY1" NumberOfComponents="3" format="ascii">
          6.550916666747e-06 0.000000000000e+00 0.000000000000e+00 6.550916666747e-06 0.000000000000e+00 0.000000000000e+00 6.550916666602e-06 0.000000000000e+00 0.000000000000e+00 6.550916666747e-06 0.000000000000e+00 0.000000000000e+00 6.550916667329e-06 0.000000000000e+00 0.000000000000e+00 6.550916667475e-06 0.000000000000e+00 0.000000000000e+00 6.550916667329e-06 0.000000000000e+00 0.000000000000e+00 6.550916667329e-06 0.000000000000e+00 0.000000000000e+00 6.550916667475e-06 0.000000000000e+00 0.000000000000e+00 6.550916667475e-06 0.000000000000e+00 0.000000000000e+00 6.550916667329e-06 0.000000000000e+00 0.000000000000e+00 6.550916667329e-06 0.000000000000e+00 0.000000000000e+00 6.550916667475e-06 0.000000000000e+00 0.000000000000e+00 6.550916667475e-06 0.000000000000e+00 0.000000000000e+00 6.550916667329e-06 0.000000000000e+00 0.000000000000e+00 6.550916667329e-06 0.000000000000e+00 0.000000000000e+00 6.550916667329e-06 0.000000000000e+00 0.000000000000e+00 6.550916667329e-06 0.000000000000e+00 0.000000000000e+00 6.550916667475e-06 0.000000000000e+00 0.000000000000e+00 6.550916667475e-06 0.000000000000e+00 0.000000000000e+00 6.550916667475e-06 0.000000000000e+00 0.000000000000e+00 6.550916667475e-06 0.000000000000e+00 0.000000000000e+00 6.550916667329e-06 0.000000000000e+00 0.000000000000e+00 6.550916667329e-06 0.000000000000e+00 0.000000000000e+00 6.550916667475e-06 0.000000000000e+00 0.000000000000e+00 6.550916667475e-06 0.000000000000e+00 0.000000000000e+00 6.550916667329e-06 0.000000000000e+00 0.000000000000e+00 6.550916667475e-06 0.000000000000e+00 0.000000000000e+00 6.550916667620e-06 0.000000000000e+00 0.000000000000e+00 6.550916667475e-06 0.000000000000e+00 0.000000000000e+00 6.550916667329e-06 0.000000000000e+00 0.000000000000e+00 6.550916667329e-06 0.000000000000e+00 0.000000000000e+00 6.550916667329e-06 0.000000000000e+00 0.000000000000e+00 6.550916667329e-06 0.000000000000e+00 0.000000000000e+00 6.550916667329e-06 0.000000000000e+00 0.000000000000e+00 6.550916667329e-06 0.000000000000e+00 0.000000000000e+00 6.550916667475e-06 0.000000000000e+00 0.000000000000e+00 6.550916667475e-06 0.000000000000e+00 0.000000000000e+00 6.550916667329e-06 0.000000000000e+00 0.000000000000e+00 6.550916667329e-06 0.000000000000e+00 0.000000000000e+00 6.550916667329e-06 0.000000000000e+00 0.000000000000e+00 6.550916667329e-06 0.000000000000e+00 0.000000000000e+00 6.550916667329e-06 0.000000000000e+00 0.000000000000e+00 6.550916667329e-06 0.000000000000e+00 0.000000000000e+00 6.550916667329e-06 0.000000000000e+00 0.000000000000e+00 6.550916667329e-06 0.000000000000e+00 0.000000000000e+00 6.550916667329e-06 0.000000000000e+00 0.000000000000e+00 6.550916667475e-06 0.000000000000e+00 0.000000000000e+00 6.550916667620e-06 0.000000000000e+00 0.000000000000e+00 6.550916667475e-06 0.000000000000e+00 0.000000000000e+00 6.550916667329e-06 0.000000000000e+00 0.000000000000e+00 6.550916667329e-06 0.000000000000e+00 0.000000000000e+00 6.550916667329e-06 0.000000000000e+00 0.000000000000e+00 6.550916667329e-06 0.000000000000e+00 0.000000000000e+00 6.550916667329e-06 0.000000000000e+00 0.000000000000e+00 6.550916667475e-06 0.000000000000e+00 0.000000000000e+00 6.550916667620e-06 0.000000000000e+00 0.000000000000e+00 6.550916667475e-06 0.000000000000e+00 0.000000000000e+00 6.550916667329e-06 0.000000000000e+00 0.000000000000e+00 6.550916667475e-06 0.000000000000e+00 0.000000000000e+00 6.550916667475e-06 0.000000000000e+00 0.000000000000e+00 6.550916667329e-06 0.000000000000e+00 0.000000000000e+00 6.550916667329e-06 0.000000000000e+00 0.000000000000e+00 6.550916667329e-06 0.000000000000e+00 0.000000000000e+00 6.550916667329e-06 0.000000000000e+00 0.000000000000e+00 6.550916667329e-06 0.000000000000e+00 0.000000000000e+00 6.550916667329e-06 0.000000000000e+00 0.000000000000e+00 6.550916667475e-06 0.000000000000e+00 0.000000000000e+00 6.550916667620e-06 0.000000000000e+00 0.000000000000e+00 6.550916667475e-06 0.000000000000e+00 0.000000000000e+00 6.550916667329e-06 0.000000000000e+00 0.000000000000e+00 6.550916667329e-06 0.000000000000e+00 0.000000000000e+00 6.550916667329e-06 0.000000000000e+00 0.000000000000e+00 6.550916667329e-06 0.000000000000e+00 0.000000000000e+00 6.550916667329e-06 0.000000000000e+00 0.000000000000e+00 6.550916667620e-06 0.000000000000e+00 0.000000000000e+00 6.550916667620e-06 0.000000000000e+00 0.000000000000e+00 6.550916667329e-06 0.000000000000e+00 0.000000000000e+00 6.550916667329e-06 0.000000000000e+00 0.000000000000e+00 6.550916667329e-06 0.000000000000e+00 0.000000000000e+00 6.550916667329e-06 0.000000000000e+00 0.000000000000e+00 6.550916667329e-06 0.000000000000e+00 0.000000000000e+00 6.550916667766e-06 0.000000000000e+00 0.000000000000e+00 6.550916668493e-06 0.000000000000e+00 0.000000000000e+00 6.550916668930e-06 0.000000000000e+00 0.000000000000e+00 6.550916668930e-06 0.000000000000e+00 0.000000000000e+00 6.550916668784e-06 0.000000000000e+00 0.000000000000e+00 6.550916669221e-06 0.000000000000e+00 0.000000000000e+00 6.550916669948e-06 0.000000000000e+00 0.000000000000e+00 6.550916670240e-06 0.000000000000e+00 0.000000000000e+00 6.550916670385e-06 0.000000000000e+00 0.000000000000e+00 6.550916670531e-06 0.000000000000e+00 0.000000000000e+00 6.550916670822e-06 0.000000000000e+00 0.000000000000e+00 6.550916671404e-06 0.000000000000e+00 0.000000000000e+00 6.550916671695e-06 0.000000000000e+00 0.000000000000e+00 
        </DataArray>
      </PointData>
      <CellData>
      </CellData>
    </Piece>
  </UnstructuredGrid>
</VTKFile>
