<?xml version="1.0"?>
<!-- Time step: 180 | Time: 6.480000000000e+05 -->
<VTKFile type="UnstructuredGrid" version="0.1" byte_order="LittleEndian">
  <UnstructuredGrid>
    <Piece NumberOfPoints="95" NumberOfCells="94">
      <Points>
        <DataArray type="Float64" NumberOfComponents="3" format="ascii">
          0.000000000000e+00 0.000000000000e+00 0.000000000000e+00
          5.000000000000e-02 0.000000000000e+00 0.000000000000e+00
          1.000000000000e-01 0.000000000000e+00 0.000000000000e+00
          1.500000000000e-01 0.000000000000e+00 0.000000000000e+00
          2.000000000000e-01 0.000000000000e+00 0.000000000000e+00
          2.500000000000e-01 0.000000000000e+00 0.000000000000e+00
          3.000000000000e-01 0.000000000000e+00 0.000000000000e+00
          3.500000000000e-01 0.000000000000e+00 0.000000000000e+00
          4.000000000000e-01 0.000000000000e+00 0.000000000000e+00
          4.500000000000e-01 0.000000000000e+00 0.000000000000e+00
          5.000000000000e-01 0.000000000000e+00 0.000000000000e+00
          5.500000000000e-01 0.000000000000e+00 0.000000000000e+00
          6.000000000000e-01 0.000000000000e+00 0.000000000000e+00
          6.500000000000e-01 0.000000000000e+00 0.000000000000e+00
          7.000000000000e-01 0.000000000000e+00 0.000000000000e+00
          7.500000000000e-01 0.000000000000e+00 0.000000000000e+00
          8.000000000000e-01 0.000000000000e+00 0.000000000000e+00
          8.500000000000e-01 0.000000000000e+00 0.000000000000e+00
          9.000000000000e-01 0.000000000000e+00 0.000000000000e+00
          9.500000000000e-01 0.000000000000e+00 0.000000000000e+00
          1.000000000000e+00 0.000000000000e+00 0.000000000000e+00
          1.050000000000e+00 0.000000000000e+00 0.000000000000e+00
          1.100000000000e+00 0.000000000000e+00 0.000000000000e+00
          1.150000000000e+00 0.000000000000e+00 0.000000000000e+00
          1.200000000000e+00 0.000000000000e+00 0.000000000000e+00
          1.250000000000e+00 0.000000000000e+00 0.000000000000e+00
          1.300000000000e+00 0.000000000000e+00 0.000000000000e+00
          1.350000000000e+00 0.000000000000e+00 0.000000000000e+00
          1.400000000000e+00 0.000000000000e+00 0.000000000000e+00
          1.450000000000e+00 0.000000000000e+00 0.000000000000e+00
          1.500000000000e+00 0.000000000000e+00 0.000000000000e+00
          1.550000000000e+00 0.000000000000e+00 0.000000000000e+00
          1.600000000000e+00 0.000000000000e+00 0.000000000000e+00
          1.650000000000e+00 0.000000000000e+00 0.000000000000e+00
          1.700000000000e+00 0.000000000000e+00 0.000000000000e+00
          1.750000000000e+00 0.000000000000e+00 0.000000000000e+00
          1.800000000000e+00 0.000000000000e+00 0.000000000000e+00
          1.850000000000e+00 0.000000000000e+00 0.000000000000e+00
          1.900000000000e+00 0.000000000000e+00 0.000000000000e+00
          1.950000000000e+00 0.000000000000e+00 0.000000000000e+00
          2.000000000000e+00 0.000000000000e+00 0.000000000000e+00
          2.050000000000e+00 0.000000000000e+00 0.000000000000e+00
          2.100000000000e+00 0.000000000000e+00 0.000000000000e+00
          2.150000000000e+00 0.000000000000e+00 0.000000000000e+00
          2.200000000000e+00 0.000000000000e+00 0.000000000000e+00
          2.250000000000e+00 0.000000000000e+00 0.000000000000e+00
          2.300000000000e+00 0.000000000000e+00 0.000000000000e+00
          2.350000000000e+00 0.000000000000e+00 0.000000000000e+00
          2.400000000000e+00 0.000000000000e+00 0.000000000000e+00
          2.450000000000e+00 0.000000000000e+00 0.000000000000e+00
          2.500000000000e+00 0.000000000000e+00 0.000000000000e+00
          2.550000000000e+00 0.000000000000e+00 0.000000000000e+00
          2.600000000000e+00 0.000000000000e+00 0.000000000000e+00
          2.650000000000e+00 0.000000000000e+00 0.000000000000e+00
          2.700000000000e+00 0.000000000000e+00 0.000000000000e+00
          2.750000000000e+00 0.000000000000e+00 0.000000000000e+00
          2.800000000000e+00 0.000000000000e+00 0.000000000000e+00
          2.850000000000e+00 0.000000000000e+00 0.000000000000e+00
          2.900000000000e+00 0.000000000000e+00 0.000000000000e+00
          2.950000000000e+00 0.000000000000e+00 0.000000000000e+00
          3.000000000000e+00 0.000000000000e+00 0.000000000000e+00
          3.050000000000e+00 0.000000000000e+00 0.000000000000e+00
          3.100000000000e+00 0.000000000000e+00 0.000000000000e+00
          3.150000000000e+00 0.000000000000e+00 0.000000000000e+00
          3.200000000000e+00 0.000000000000e+00 0.000000000000e+00
          3.250000000000e+00 0.000000000000e+00 0.000000000000e+00
          3.300000000000e+00 0.000000000000e+00 0.000000000000e+00
          3.350000000000e+00 0.000000000000e+00 0.000000000000e+00
          3.400000000000e+00 0.000000000000e+00 0.000000000000e+00
          3.450000000000e+00 0.000000000000e+00 0.000000000000e+00
          3.500000000000e+00 0.000000000000e+00 0.000000000000e+00
          3.550000000000e+00 0.000000000000e+00 0.000000000000e+00
          3.600000000000e+00 0.000000000000e+00 0.000000000000e+00
          3.650000000000e+00 0.000000000000e+00 0.000000000000e+00
          3.700000000000e+00 0.000000000000e+00 0.000000000000e+00
          3.750000000000e+00 0.000000000000e+00 0.000000000000e+00
          3.800000000000e+00 0.000000000000e+00 0.000000000000e+00
          3.850000000000e+00 0.000000000000e+00 0.000000000000e+00
          3.900000000000e+00 0.000000000000e+00 0.000000000000e+00
          3.950000000000e+00 0.000000000000e+00 0.000000000000e+00
          4.000000000000e+00 0.000000000000e+00 0.000000000000e+00
          4.050000000000e+00 0.000000000000e+00 0.000000000000e+00
          4.100000000000e+00 0.000000000000e+00 0.000000000000e+00
          4.150000000000e+00 0.000000000000e+00 0.000000000000e+00
          4.200000000000e+00 0.000000000000e+00 0.000000000000e+00
          4.250000000000e+00 0.000000000000e+00 0.000000000000e+00
          4.300000000000e+00 0.000000000000e+00 0.000000000000e+00
          4.350000000000e+00 0.000000000000e+00 0.000000000000e+00
          4.400000000000e+00 0.000000000000e+00 0.000000000000e+00
          4.450000000000e+00 0.000000000000e+00 0.000000000000e+00
          4.500000000000e+00 0.000000000000e+00 0.000000000000e+00
          4.550000000000e+00 0.000000000000e+00 0.000000000000e+00
          4.600000000000e+00 0.000000000000e+00 0.000000000000e+00
          4.650000000000e+00 0.000000000000e+00 0.000000000000e+00
          4.700000000000e+00 0.000000000000e+00 0.000000000000e+00
        </DataArray>
      </Points>
      <Cells>
        <DataArray type="Int64" Name="connectivity" format="ascii">
          0 1 
          1 2 
          2 3 
          3 4 
          4 5 
          5 6 
          6 7 
          7 8 
          8 9 
          9 10 
          10 11 
          11 12 
          12 13 
          13 14 
          14 15 
          15 16 
          16 17 
          17 18 
          18 19 
          19 20 
          20 21 
          21 22 
          22 23 
          23 24 
          24 25 
          25 26 
          26 27 
          27 28 
          28 29 
          29 30 
          30 31 
          31 32 
          32 33 
          33 34 
          34 35 
          35 36 
          36 37 
          37 38 
          38 39 
          39 40 
          40 41 
          41 42 
          42 43 
          43 44 
          44 45 
          45 46 
          46 47 
          47 48 
          48 49 
          49 50 
          50 51 
          51 52 
          52 53 
          53 54 
          54 55 
          55 56 
          56 57 
          57 58 
          58 59 
          59 60 
          60 61 
          61 62 
          62 63 
          63 64 
          64 65 
          65 66 
          66 67 
          67 68 
          68 69 
          69 70 
          70 71 
          71 72 
          72 73 
          73 74 
          74 75 
          75 76 
          76 77 
          77 78 
          78 79 
          79 80 
          80 81 
          81 82 
          82 83 
          83 84 
          84 85 
          85 86 
          86 87 
          87 88 
          88 89 
          89 90 
          90 91 
          91 92 
          92 93 
          93 94 
        </DataArray>
        <DataArray type="Int64" Name="offsets" format="ascii">
          2 4 6 8 10 12 14 16 18 20 22 24 26 28 30 32 34 36 38 40 42 44 46 48 50 52 54 56 58 60 62 64 66 68 70 72 74 76 78 80 82 84 86 88 90 92 94 96 98 100 102 104 106 108 110 112 114 116 118 120 122 124 126 128 130 132 134 136 138 140 142 144 146 148 150 152 154 156 158 160 162 164 166 168 170 172 174 176 178 180 182 184 186 188 
        </DataArray>
        <DataArray type="UInt8" Name="types" format="ascii">
          3 3 3 3 3 3 3 3 3 3 3 3 3 3 3 3 3 3 3 3 3 3 3 3 3 3 3 3 3 3 3 3 3 3 3 3 3 3 3 3 3 3 3 3 3 3 3 3 3 3 3 3 3 3 3 3 3 3 3 3 3 3 3 3 3 3 3 3 3 3 3 3 3 3 3 3 3 3 3 3 3 3 3 3 3 3 3 3 3 3 3 3 3 3 
        </DataArray>
      </Cells>
      <PointData Scalars="Tracer">
        <DataArray type="Float64" Name="Tracer" format="ascii">
          0.000000000000e+00 1.352390565183e-06 2.772381690006e-06 4.261614507985e-06 5.821725317232e-06 7.454343232630e-06 9.161087726622e-06 1.094356605595e-05 1.280337057329e-05 1.474207591986e-05 1.676123609756e-05 1.886238141693e-05 2.104701532006e-05 2.331661107491e-05 2.567260833965e-05 2.811640959326e-05 3.064937643214e-05 3.327282572904e-05 3.598802565286e-05 3.879619154695e-05 4.169848166490e-05 4.469599275974e-05 4.778975552811e-05 5.098072990403e-05 5.426980020374e-05 5.765777011825e-05 6.114535755361e-05 6.473318931556e-05 6.842179564007e-05 7.221160456757e-05 7.610293615938e-05 8.009599655634e-05 8.419087188013e-05 8.838752197536e-05 9.268577399322e-05 9.708531581651e-05 1.015856893265e-04 1.061862835119e-04 1.108863274216e-04 1.156848829593e-04 1.205808375263e-04 1.255728965081e-04 1.306595756117e-04 1.358391930520e-04 1.411098615911e-04 1.464694804340e-04 1.519157269818e-04 1.574460484467e-04 1.630576533327e-04 1.687475027862e-04 1.745123018189e-04 1.803484904103e-04 1.862522344935e-04 1.922194168307e-04 1.982456277836e-04 2.043261559855e-04 2.104559789219e-04 2.166297534282e-04 2.228418061100e-04 2.290861236956e-04 2.353563433307e-04 2.416457428239e-04 2.479472308507e-04 2.542533371307e-04 2.605562025864e-04 2.668475694952e-04 2.731187716488e-04 2.793607245307e-04 2.855639155270e-04 2.917183941850e-04 2.978137625321e-04 3.038391654729e-04 3.097832812811e-04 3.156343122010e-04 3.213799751784e-04 3.270074927387e-04 3.325035840302e-04 3.378544560576e-04 3.430457951166e-04 3.480627584639e-04 3.528899662348e-04 3.575114936371e-04 3.619108634439e-04 3.660710388095e-04 3.699744164373e-04 3.736028201222e-04 3.769374946985e-04 3.799591004196e-04 3.826477078017e-04 3.849827929599e-04 3.869432334681e-04 3.885073047750e-04 3.896526772107e-04 3.903564136168e-04 3.905949676356e-04 
        </DataArray>
      </PointData>
      <CellData>
      </CellData>
    </Piece>
  </UnstructuredGrid>
</VTKFile>
