<?xml version="1.0"?>
<!-- Time step: 60 | Time: 2.160000000000e+05 -->
<VTKFile type="UnstructuredGrid" version="0.1" byte_order="LittleEndian">
  <UnstructuredGrid>
    <Piece NumberOfPoints="95" NumberOfCells="94">
      <Points>
        <DataArray type="Float64" NumberOfComponents="3" format="ascii">
          0.000000000000e+00 0.000000000000e+00 0.000000000000e+00
          5.000000000000e-02 0.000000000000e+00 0.000000000000e+00
          1.000000000000e-01 0.000000000000e+00 0.000000000000e+00
          1.500000000000e-01 0.000000000000e+00 0.000000000000e+00
          2.000000000000e-01 0.000000000000e+00 0.000000000000e+00
          2.500000000000e-01 0.000000000000e+00 0.000000000000e+00
          3.000000000000e-01 0.000000000000e+00 0.000000000000e+00
          3.500000000000e-01 0.000000000000e+00 0.000000000000e+00
          4.000000000000e-01 0.000000000000e+00 0.000000000000e+00
          4.500000000000e-01 0.000000000000e+00 0.000000000000e+00
          5.000000000000e-01 0.000000000000e+00 0.000000000000e+00
          5.500000000000e-01 0.000000000000e+00 0.000000000000e+00
          6.000000000000e-01 0.000000000000e+00 0.000000000000e+00
          6.500000000000e-01 0.000000000000e+00 0.000000000000e+00
          7.000000000000e-01 0.000000000000e+00 0.000000000000e+00
          7.500000000000e-01 0.000000000000e+00 0.000000000000e+00
          8.000000000000e-01 0.000000000000e+00 0.000000000000e+00
          8.500000000000e-01 0.000000000000e+00 0.000000000000e+00
          9.000000000000e-01 0.000000000000e+00 0.000000000000e+00
          9.500000000000e-01 0.000000000000e+00 0.000000000000e+00
          1.000000000000e+00 0.000000000000e+00 0.000000000000e+00
          1.050000000000e+00 0.000000000000e+00 0.000000000000e+00
          1.100000000000e+00 0.000000000000e+00 0.000000000000e+00
          1.150000000000e+00 0.000000000000e+00 0.000000000000e+00
          1.200000000000e+00 0.000000000000e+00 0.000000000000e+00
          1.250000000000e+00 0.000000000000e+00 0.000000000000e+00
          1.300000000000e+00 0.000000000000e+00 0.000000000000e+00
          1.350000000000e+00 0.000000000000e+00 0.000000000000e+00
          1.400000000000e+00 0.000000000000e+00 0.000000000000e+00
          1.450000000000e+00 0.000000000000e+00 0.000000000000e+00
          1.500000000000e+00 0.000000000000e+00 0.000000000000e+00
          1.550000000000e+00 0.000000000000e+00 0.000000000000e+00
          1.600000000000e+00 0.000000000000e+00 0.000000000000e+00
          1.650000000000e+00 0.000000000000e+00 0.000000000000e+00
          1.700000000000e+00 0.000000000000e+00 0.000000000000e+00
          1.750000000000e+00 0.000000000000e+00 0.000000000000e+00
          1.800000000000e+00 0.000000000000e+00 0.000000000000e+00
          1.850000000000e+00 0.000000000000e+00 0.000000000000e+00
          1.900000000000e+00 0.000000000000e+00 0.000000000000e+00
          1.950000000000e+00 0.000000000000e+00 0.000000000000e+00
          2.000000000000e+00 0.000000000000e+00 0.000000000000e+00
          2.050000000000e+00 0.000000000000e+00 0.000000000000e+00
          2.100000000000e+00 0.000000000000e+00 0.000000000000e+00
          2.150000000000e+00 0.000000000000e+00 0.000000000000e+00
          2.200000000000e+00 0.000000000000e+00 0.000000000000e+00
          2.250000000000e+00 0.000000000000e+00 0.000000000000e+00
          2.300000000000e+00 0.000000000000e+00 0.000000000000e+00
          2.350000000000e+00 0.000000000000e+00 0.000000000000e+00
          2.400000000000e+00 0.000000000000e+00 0.000000000000e+00
          2.450000000000e+00 0.000000000000e+00 0.000000000000e+00
          2.500000000000e+00 0.000000000000e+00 0.000000000000e+00
          2.550000000000e+00 0.000000000000e+00 0.000000000000e+00
          2.600000000000e+00 0.000000000000e+00 0.000000000000e+00
          2.650000000000e+00 0.000000000000e+00 0.000000000000e+00
          2.700000000000e+00 0.000000000000e+00 0.000000000000e+00
          2.750000000000e+00 0.000000000000e+00 0.000000000000e+00
          2.800000000000e+00 0.000000000000e+00 0.000000000000e+00
          2.850000000000e+00 0.000000000000e+00 0.000000000000e+00
          2.900000000000e+00 0.000000000000e+00 0.000000000000e+00
          2.950000000000e+00 0.000000000000e+00 0.000000000000e+00
          3.000000000000e+00 0.000000000000e+00 0.000000000000e+00
          3.050000000000e+00 0.000000000000e+00 0.000000000000e+00
          3.100000000000e+00 0.000000000000e+00 0.000000000000e+00
          3.150000000000e+00 0.000000000000e+00 0.000000000000e+00
          3.200000000000e+00 0.000000000000e+00 0.000000000000e+00
          3.250000000000e+00 0.000000000000e+00 0.000000000000e+00
          3.300000000000e+00 0.000000000000e+00 0.000000000000e+00
          3.350000000000e+00 0.000000000000e+00 0.000000000000e+00
          3.400000000000e+00 0.000000000000e+00 0.000000000000e+00
          3.450000000000e+00 0.000000000000e+00 0.000000000000e+00
          3.500000000000e+00 0.000000000000e+00 0.000000000000e+00
          3.550000000000e+00 0.000000000000e+00 0.000000000000e+00
          3.600000000000e+00 0.000000000000e+00 0.000000000000e+00
          3.650000000000e+00 0.000000000000e+00 0.000000000000e+00
          3.700000000000e+00 0.000000000000e+00 0.000000000000e+00
          3.750000000000e+00 0.000000000000e+00 0.000000000000e+00
          3.800000000000e+00 0.000000000000e+00 0.000000000000e+00
          3.850000000000e+00 0.000000000000e+00 0.000000000000e+00
          3.900000000000e+00 0.000000000000e+00 0.000000000000e+00
          3.950000000000e+00 0.000000000000e+00 0.000000000000e+00
          4.000000000000e+00 0.000000000000e+00 0.000000000000e+00
          4.050000000000e+00 0.000000000000e+00 0.000000000000e+00
          4.100000000000e+00 0.000000000000e+00 0.000000000000e+00
          4.150000000000e+00 0.000000000000e+00 0.000000000000e+00
          4.200000000000e+00 0.000000000000e+00 0.000000000000e+00
          4.250000000000e+00 0.000000000000e+00 0.000000000000e+00
          4.300000000000e+00 0.000000000000e+00 0.000000000000e+00
          4.350000000000e+00 0.000000000000e+00 0.000000000000e+00
          4.400000000000e+00 0.000000000000e+00 0.000000000000e+00
          4.450000000000e+00 0.000000000000e+00 0.000000000000e+00
          4.500000000000e+00 0.000000000000e+00 0.000000000000e+00
          4.550000000000e+00 0.000000000000e+00 0.000000000000e+00
          4.600000000000e+00 0.000000000000e+00 0.000000000000e+00
          4.650000000000e+00 0.000000000000e+00 0.000000000000e+00
          4.700000000000e+00 0.000000000000e+00 0.000000000000e+00
        </DataArray>
      </Points>
      <Cells>
        <DataArray type="Int64" Name="connectivity" format="ascii">
          0 1 
          1 2 
          2 3 
          3 4 
          4 5 
          5 6 
          6 7 
          7 8 
          8 9 
          9 10 
          10 11 
          11 12 
          12 13 
          13 14 
          14 15 
          15 16 
          16 17 
          17 18 
          18 19 
          19 20 
          20 21 
          21 22 
          22 23 
          23 24 
          24 25 
          25 26 
          26 27 
          27 28 
          28 29 
          29 30 
          30 31 
          31 32 
          32 33 
          33 34 
          34 35 
          35 36 
          36 37 
          37 38 
          38 39 
          39 40 
          40 41 
          41 42 
          42 43 
          43 44 
          44 45 
          45 46 
          46 47 
          47 48 
          48 49 
          49 50 
          50 51 
          51 52 
          52 53 
          53 54 
          54 55 
          55 56 
          56 57 
          57 58 
          58 59 
          59 60 
          60 61 
          61 62 
          62 63 
          63 64 
          64 65 
          65 66 
          66 67 
          67 68 
          68 69 
          69 70 
          70 71 
          71 72 
          72 73 
          73 74 
          74 75 
          75 76 
          76 77 
          77 78 
          78 79 
          79 80 
          80 81 
          81 82 
          82 83 
          83 84 
          84 85 
          85 86 
          86 87 
          87 88 
          88 89 
          89 90 
          90 91 
          91 92 
          92 93 
          93 94 
        </DataArray>
        <DataArray type="Int64" Name="offsets" format="ascii">
          2 4 6 8 10 12 14 16 18 20 22 24 26 28 30 32 34 36 38 40 42 44 46 48 50 52 54 56 58 60 62 64 66 68 70 72 74 76 78 80 82 84 86 88 90 92 94 96 98 100 102 104 106 108 110 112 114 116 118 120 122 124 126 128 130 132 134 136 138 140 142 144 146 148 150 152 154 156 158 160 162 164 166 168 170 172 174 176 178 180 182 184 186 188 
        </DataArray>
        <DataArray type="UInt8" Name="types" format="ascii">
          3 3 3 3 3 3 3 3 3 3 3 3 3 3 3 3 3 3 3 3 3 3 3 3 3 3 3 3 3 3 3 3 3 3 3 3 3 3 3 3 3 3 3 3 3 3 3 3 3 3 3 3 3 3 3 3 3 3 3 3 3 3 3 3 3 3 3 3 3 3 3 3 3 3 3 3 3 3 3 3 3 3 3 3 3 3 3 3 3 3 3 3 3 3 
        </DataArray>
      </Cells>
      <PointData Scalars="Tracer">
        <DataArray type="Float64" Name="Tracer" format="ascii">
          0.000000000000e+00 6.376198459199e-05 1.306853450780e-04 2.008193303032e-04 2.742104134028e-04 3.509021362009e-04 4.309349560175e-04 5.143460953198e-04 6.011693947331e-04 6.914351697833e-04 7.851700718595e-04 8.823969537592e-04 9.831347403192e-04 1.087398304476e-03 1.195198349201e-03 1.306541295623e-03 1.421429177784e-03 1.539859544306e-03 1.661825367312e-03 1.787314958895e-03 1.916311895411e-03 2.048794949772e-03 2.184738032070e-03 2.324110138537e-03 2.466875309129e-03 2.612992593721e-03 2.762416027049e-03 2.915094612303e-03 3.070972313459e-03 3.229988056213e-03 3.392075737350e-03 3.557164242414e-03 3.725177471469e-03 3.896034372602e-03 4.069648982879e-03 4.245930476315e-03 4.424783218449e-03 4.606106826963e-03 4.789796237838e-03 4.975741776303e-03 5.163829232030e-03 5.353939937703e-03 5.545950850214e-03 5.739734633584e-03 5.935159742689e-03 6.132090506792e-03 6.330387211836e-03 6.529906180388e-03 6.730499848062e-03 6.932016835248e-03 7.134302012795e-03 7.337196560379e-03 7.540538016217e-03 7.744160316663e-03 7.947893824237e-03 8.151565342617e-03 8.354998117041e-03 8.558011818606e-03 8.760422510797e-03 8.962042596676e-03 9.162680745161e-03 9.362141794694e-03 9.560226632595e-03 9.756732048611e-03 9.951450560885e-03 1.014417021277e-02 1.033467433888e-02 1.052274129876e-02 1.070814417669e-02 1.089065044605e-02 1.107002159678e-02 1.124601272466e-02 1.141837208086e-02 1.158684058076e-02 1.175115127061e-02 1.191102875125e-02 1.206618855755e-02 1.221633649319e-02 1.236116791953e-02 1.250036699847e-02 1.263360588856e-02 1.276054389415e-02 1.288082656761e-02 1.299408476449e-02 1.309993365212e-02 1.319797167194e-02 1.328777945641e-02 1.336891870135e-02 1.344093099496e-02 1.350333660491e-02 1.355563322524e-02 1.359729468501e-02 1.362776962101e-02 1.364648011710e-02 1.365282031307e-02 
        </DataArray>
      </PointData>
      <CellData>
      </CellData>
    </Piece>
  </UnstructuredGrid>
</VTKFile>
