<?xml version="1.0"?>
<!-- Time step: 100 | Time: 3.600000000000e+05 -->
<VTKFile type="UnstructuredGrid" version="0.1" byte_order="LittleEndian">
  <UnstructuredGrid>
    <Piece NumberOfPoints="95" NumberOfCells="94">
      <Points>
        <DataArray type="Float64" NumberOfComponents="3" format="ascii">
          0.000000000000e+00 0.000000000000e+00 0.000000000000e+00
          5.000000000000e-02 0.000000000000e+00 0.000000000000e+00
          1.000000000000e-01 0.000000000000e+00 0.000000000000e+00
          1.500000000000e-01 0.000000000000e+00 0.000000000000e+00
          2.000000000000e-01 0.000000000000e+00 0.000000000000e+00
          2.500000000000e-01 0.000000000000e+00 0.000000000000e+00
          3.000000000000e-01 0.000000000000e+00 0.000000000000e+00
          3.500000000000e-01 0.000000000000e+00 0.000000000000e+00
          4.000000000000e-01 0.000000000000e+00 0.000000000000e+00
          4.500000000000e-01 0.000000000000e+00 0.000000000000e+00
          5.000000000000e-01 0.000000000000e+00 0.000000000000e+00
          5.500000000000e-01 0.000000000000e+00 0.000000000000e+00
          6.000000000000e-01 0.000000000000e+00 0.000000000000e+00
          6.500000000000e-01 0.000000000000e+00 0.000000000000e+00
          7.000000000000e-01 0.000000000000e+00 0.000000000000e+00
          7.500000000000e-01 0.000000000000e+00 0.000000000000e+00
          8.000000000000e-01 0.000000000000e+00 0.000000000000e+00
          8.500000000000e-01 0.000000000000e+00 0.000000000000e+00
          9.000000000000e-01 0.000000000000e+00 0.000000000000e+00
          9.500000000000e-01 0.000000000000e+00 0.000000000000e+00
          1.000000000000e+00 0.000000000000e+00 0.000000000000e+00
          1.050000000000e+00 0.000000000000e+00 0.000000000000e+00
          1.100000000000e+00 0.000000000000e+00 0.000000000000e+00
          1.150000000000e+00 0.000000000000e+00 0.000000000000e+00
          1.200000000000e+00 0.000000000000e+00 0.000000000000e+00
          1.250000000000e+00 0.000000000000e+00 0.000000000000e+00
          1.300000000000e+00 0.000000000000e+00 0.000000000000e+00
          1.350000000000e+00 0.000000000000e+00 0.000000000000e+00
          1.400000000000e+00 0.000000000000e+00 0.000000000000e+00
          1.450000000000e+00 0.000000000000e+00 0.000000000000e+00
          1.500000000000e+00 0.000000000000e+00 0.000000000000e+00
          1.550000000000e+00 0.000000000000e+00 0.000000000000e+00
          1.600000000000e+00 0.000000000000e+00 0.000000000000e+00
          1.650000000000e+00 0.000000000000e+00 0.000000000000e+00
          1.700000000000e+00 0.000000000000e+00 0.000000000000e+00
          1.750000000000e+00 0.000000000000e+00 0.000000000000e+00
          1.800000000000e+00 0.000000000000e+00 0.000000000000e+00
          1.850000000000e+00 0.000000000000e+00 0.000000000000e+00
          1.900000000000e+00 0.000000000000e+00 0.000000000000e+00
          1.950000000000e+00 0.000000000000e+00 0.000000000000e+00
          2.000000000000e+00 0.000000000000e+00 0.000000000000e+00
          2.050000000000e+00 0.000000000000e+00 0.000000000000e+00
          2.100000000000e+00 0.000000000000e+00 0.000000000000e+00
          2.150000000000e+00 0.000000000000e+00 0.000000000000e+00
          2.200000000000e+00 0.000000000000e+00 0.000000000000e+00
          2.250000000000e+00 0.000000000000e+00 0.000000000000e+00
          2.300000000000e+00 0.000000000000e+00 0.000000000000e+00
          2.350000000000e+00 0.000000000000e+00 0.000000000000e+00
          2.400000000000e+00 0.000000000000e+00 0.000000000000e+00
          2.450000000000e+00 0.000000000000e+00 0.000000000000e+00
          2.500000000000e+00 0.000000000000e+00 0.000000000000e+00
          2.550000000000e+00 0.000000000000e+00 0.000000000000e+00
          2.600000000000e+00 0.000000000000e+00 0.000000000000e+00
          2.650000000000e+00 0.000000000000e+00 0.000000000000e+00
          2.700000000000e+00 0.000000000000e+00 0.000000000000e+00
          2.750000000000e+00 0.000000000000e+00 0.000000000000e+00
          2.800000000000e+00 0.000000000000e+00 0.000000000000e+00
          2.850000000000e+00 0.000000000000e+00 0.000000000000e+00
          2.900000000000e+00 0.000000000000e+00 0.000000000000e+00
          2.950000000000e+00 0.000000000000e+00 0.000000000000e+00
          3.000000000000e+00 0.000000000000e+00 0.000000000000e+00
          3.050000000000e+00 0.000000000000e+00 0.000000000000e+00
          3.100000000000e+00 0.000000000000e+00 0.000000000000e+00
          3.150000000000e+00 0.000000000000e+00 0.000000000000e+00
          3.200000000000e+00 0.000000000000e+00 0.000000000000e+00
          3.250000000000e+00 0.000000000000e+00 0.000000000000e+00
          3.300000000000e+00 0.000000000000e+00 0.000000000000e+00
          3.350000000000e+00 0.000000000000e+00 0.000000000000e+00
          3.400000000000e+00 0.000000000000e+00 0.000000000000e+00
          3.450000000000e+00 0.000000000000e+00 0.000000000000e+00
          3.500000000000e+00 0.000000000000e+00 0.000000000000e+00
          3.550000000000e+00 0.000000000000e+00 0.000000000000e+00
          3.600000000000e+00 0.000000000000e+00 0.000000000000e+00
          3.650000000000e+00 0.000000000000e+00 0.000000000000e+00
          3.700000000000e+00 0.000000000000e+00 0.000000000000e+00
          3.750000000000e+00 0.000000000000e+00 0.000000000000e+00
          3.800000000000e+00 0.000000000000e+00 0.000000000000e+00
          3.850000000000e+00 0.000000000000e+00 0.000000000000e+00
          3.900000000000e+00 0.000000000000e+00 0.000000000000e+00
          3.950000000000e+00 0.000000000000e+00 0.000000000000e+00
          4.000000000000e+00 0.000000000000e+00 0.000000000000e+00
          4.050000000000e+00 0.000000000000e+00 0.000000000000e+00
          4.100000000000e+00 0.000000000000e+00 0.000000000000e+00
          4.150000000000e+00 0.000000000000e+00 0.000000000000e+00
          4.200000000000e+00 0.000000000000e+00 0.000000000000e+00
          4.250000000000e+00 0.000000000000e+00 0.000000000000e+00
          4.300000000000e+00 0.000000000000e+00 0.000000000000e+00
          4.350000000000e+00 0.000000000000e+00 0.000000000000e+00
          4.400000000000e+00 0.000000000000e+00 0.000000000000e+00
          4.450000000000e+00 0.000000000000e+00 0.000000000000e+00
          4.500000000000e+00 0.000000000000e+00 0.000000000000e+00
          4.550000000000e+00 0.000000000000e+00 0.000000000000e+00
          4.600000000000e+00 0.000000000000e+00 0.000000000000e+00
          4.650000000000e+00 0.000000000000e+00 0.000000000000e+00
          4.700000000000e+00 0.000000000000e+00 0.000000000000e+00
        </DataArray>
      </Points>
      <Cells>
        <DataArray type="Int64" Name="connectivity" format="ascii">
          0 1 
          1 2 
          2 3 
          3 4 
          4 5 
          5 6 
          6 7 
          7 8 
          8 9 
          9 10 
          10 11 
          11 12 
          12 13 
          13 14 
          14 15 
          15 16 
          16 17 
          17 18 
          18 19 
          19 20 
          20 21 
          21 22 
          22 23 
          23 24 
          24 25 
          25 26 
          26 27 
          27 28 
          28 29 
          29 30 
          30 31 
          31 32 
          32 33 
          33 34 
          34 35 
          35 36 
          36 37 
          37 38 
          38 39 
          39 40 
          40 41 
          41 42 
          42 43 
          43 44 
          44 45 
          45 46 
          46 47 
          47 48 
          48 49 
          49 50 
          50 51 
          51 52 
          52 53 
          53 54 
          54 55 
          55 56 
          56 57 
          57 58 
          58 59 
          59 60 
          60 61 
          61 62 
          62 63 
          63 64 
          64 65 
          65 66 
          66 67 
          67 68 
          68 69 
          69 70 
          70 71 
          71 72 
          72 73 
          73 74 
          74 75 
          75 76 
          76 77 
          77 78 
          78 79 
          79 80 
          80 81 
          81 82 
          82 83 
          83 84 
          84 85 
          85 86 
          86 87 
          87 88 
          88 89 
          89 90 
          90 91 
          91 92 
          92 93 
          93 94 
        </DataArray>
        <DataArray type="Int64" Name="offsets" format="ascii">
          2 4 6 8 10 12 14 16 18 20 22 24 26 28 30 32 34 36 38 40 42 44 46 48 50 52 54 56 58 60 62 64 66 68 70 72 74 76 78 80 82 84 86 88 90 92 94 96 98 100 102 104 106 108 110 112 114 116 118 120 122 124 126 128 130 132 134 136 138 140 142 144 146 148 150 152 154 156 158 160 162 164 166 168 170 172 174 176 178 180 182 184 186 188 
        </DataArray>
        <DataArray type="UInt8" Name="types" format="ascii">
          3 3 3 3 3 3 3 3 3 3 3 3 3 3 3 3 3 3 3 3 3 3 3 3 3 3 3 3 3 3 3 3 3 3 3 3 3 3 3 3 3 3 3 3 3 3 3 3 3 3 3 3 3 3 3 3 3 3 3 3 3 3 3 3 3 3 3 3 3 3 3 3 3 3 3 3 3 3 3 3 3 3 3 3 3 3 3 3 3 3 3 3 3 3 
        </DataArray>
      </Cells>
      <PointData Scalars="Tracer">
        <DataArray type="Float64" Name="Tracer" format="ascii">
          0.000000000000e+00 1.599755299884e-05 3.279395588734e-05 5.040774686299e-05 6.885732751577e-05 8.816093356073e-05 1.083366044805e-04 1.294021520645e-04 1.513751278488e-04 1.742727894305e-04 1.981120656558e-04 2.229095206541e-04 2.486813167297e-04 2.754431760820e-04 3.032103413566e-04 3.319975350001e-04 3.618189174296e-04 3.926880439901e-04 4.246178206966e-04 4.576204587481e-04 4.917074278117e-04 5.268894080444e-04 5.631762408798e-04 6.005768785257e-04 6.390993322017e-04 6.787506190806e-04 7.195367079430e-04 7.614624635077e-04 8.045315894616e-04 8.487465701600e-04 8.941086109837e-04 9.406175773481e-04 9.882719323657e-04 1.037068673133e-03 1.087003265644e-03 1.138069578315e-03 1.190259814119e-03 1.243564441302e-03 1.297972122713e-03 1.353469643669e-03 1.410041838428e-03 1.467671515204e-03 1.526339379742e-03 1.586023957439e-03 1.646701514009e-03 1.708345974688e-03 1.770928841971e-03 1.834419111887e-03 1.898783188797e-03 1.963984798746e-03 2.029984901331e-03 2.096741600113e-03 2.164210051592e-03 2.232342372731e-03 2.301087547053e-03 2.370391329324e-03 2.440196148840e-03 2.510441011353e-03 2.581061399638e-03 2.651989172739e-03 2.723152463958e-03 2.794475577591e-03 2.865878884457e-03 2.937278716304e-03 3.008587259109e-03 3.079712445371e-03 3.150557845433e-03 3.221022557942e-03 3.291001099506e-03 3.360383293669e-03 3.429054159282e-03 3.496893798376e-03 3.563777283706e-03 3.629574546044e-03 3.694150261385e-03 3.757363738223e-03 3.819068805055e-03 3.879113698318e-03 3.937340950871e-03 3.993587281337e-03 4.047683484442e-03 4.099454322607e-03 4.148718419051e-03 4.195288152647e-03 4.238969554845e-03 4.279562208912e-03 4.316859151836e-03 4.350646779204e-03 4.380704753424e-03 4.406805915650e-03 4.428716201781e-03 4.446194562953e-03 4.458992890952e-03 4.466855948991e-03 4.469521308310e-03 
        </DataArray>
      </PointData>
      <CellData>
      </CellData>
    </Piece>
  </UnstructuredGrid>
</VTKFile>
