VARIABLES  = "X","Y","Z", "Tracer"
ZONE T="0.000000000000e+00s", N=95, E=94, F=FEPOINT, ET=QUADRILATERAL
STRANDID=1, SOLUTIONTIME=0.000000000000e+00
0.000000000000e+00 0.000000000000e+00 0.000000000000e+00 0.000000000000e+00 
5.000000000000e-02 0.000000000000e+00 0.000000000000e+00 0.000000000000e+00 
1.000000000000e-01 0.000000000000e+00 0.000000000000e+00 0.000000000000e+00 
1.500000000000e-01 0.000000000000e+00 0.000000000000e+00 0.000000000000e+00 
2.000000000000e-01 0.000000000000e+00 0.000000000000e+00 0.000000000000e+00 
2.500000000000e-01 0.000000000000e+00 0.000000000000e+00 0.000000000000e+00 
3.000000000000e-01 0.000000000000e+00 0.000000000000e+00 0.000000000000e+00 
3.500000000000e-01 0.000000000000e+00 0.000000000000e+00 0.000000000000e+00 
4.000000000000e-01 0.000000000000e+00 0.000000000000e+00 0.000000000000e+00 
4.500000000000e-01 0.000000000000e+00 0.000000000000e+00 0.000000000000e+00 
5.000000000000e-01 0.000000000000e+00 0.000000000000e+00 0.000000000000e+00 
5.500000000000e-01 0.000000000000e+00 0.000000000000e+00 0.000000000000e+00 
6.000000000000e-01 0.000000000000e+00 0.000000000000e+00 0.000000000000e+00 
6.500000000000e-01 0.000000000000e+00 0.000000000000e+00 0.000000000000e+00 
7.000000000000e-01 0.000000000000e+00 0.000000000000e+00 0.000000000000e+00 
7.500000000000e-01 0.000000000000e+00 0.000000000000e+00 0.000000000000e+00 
8.000000000000e-01 0.000000000000e+00 0.000000000000e+00 0.000000000000e+00 
8.500000000000e-01 0.000000000000e+00 0.000000000000e+00 0.000000000000e+00 
9.000000000000e-01 0.000000000000e+00 0.000000000000e+00 0.000000000000e+00 
9.500000000000e-01 0.000000000000e+00 0.000000000000e+00 0.000000000000e+00 
1.000000000000e+00 0.000000000000e+00 0.000000000000e+00 0.000000000000e+00 
1.050000000000e+00 0.000000000000e+00 0.000000000000e+00 0.000000000000e+00 
1.100000000000e+00 0.000000000000e+00 0.000000000000e+00 0.000000000000e+00 
1.150000000000e+00 0.000000000000e+00 0.000000000000e+00 0.000000000000e+00 
1.200000000000e+00 0.000000000000e+00 0.000000000000e+00 0.000000000000e+00 
1.250000000000e+00 0.000000000000e+00 0.000000000000e+00 0.000000000000e+00 
1.300000000000e+00 0.000000000000e+00 0.000000000000e+00 0.000000000000e+00 
1.350000000000e+00 0.000000000000e+00 0.000000000000e+00 0.000000000000e+00 
1.400000000000e+00 0.000000000000e+00 0.000000000000e+00 0.000000000000e+00 
1.450000000000e+00 0.000000000000e+00 0.000000000000e+00 0.000000000000e+00 
1.500000000000e+00 0.000000000000e+00 0.000000000000e+00 0.000000000000e+00 
1.550000000000e+00 0.000000000000e+00 0.000000000000e+00 0.000000000000e+00 
1.600000000000e+00 0.000000000000e+00 0.000000000000e+00 0.000000000000e+00 
1.650000000000e+00 0.000000000000e+00 0.000000000000e+00 0.000000000000e+00 
1.700000000000e+00 0.000000000000e+00 0.000000000000e+00 0.000000000000e+00 
1.750000000000e+00 0.000000000000e+00 0.000000000000e+00 0.000000000000e+00 
1.800000000000e+00 0.000000000000e+00 0.000000000000e+00 0.000000000000e+00 
1.850000000000e+00 0.000000000000e+00 0.000000000000e+00 0.000000000000e+00 
1.900000000000e+00 0.000000000000e+00 0.000000000000e+00 0.000000000000e+00 
1.950000000000e+00 0.000000000000e+00 0.000000000000e+00 0.000000000000e+00 
2.000000000000e+00 0.000000000000e+00 0.000000000000e+00 0.000000000000e+00 
2.050000000000e+00 0.000000000000e+00 0.000000000000e+00 0.000000000000e+00 
2.100000000000e+00 0.000000000000e+00 0.000000000000e+00 0.000000000000e+00 
2.150000000000e+00 0.000000000000e+00 0.000000000000e+00 0.000000000000e+00 
2.200000000000e+00 0.000000000000e+00 0.000000000000e+00 0.000000000000e+00 
2.250000000000e+00 0.000000000000e+00 0.000000000000e+00 0.000000000000e+00 
2.300000000000e+00 0.000000000000e+00 0.000000000000e+00 0.000000000000e+00 
2.350000000000e+00 0.000000000000e+00 0.000000000000e+00 0.000000000000e+00 
2.400000000000e+00 0.000000000000e+00 0.000000000000e+00 0.000000000000e+00 
2.450000000000e+00 0.000000000000e+00 0.000000000000e+00 0.000000000000e+00 
2.500000000000e+00 0.000000000000e+00 0.000000000000e+00 0.000000000000e+00 
2.550000000000e+00 0.000000000000e+00 0.000000000000e+00 0.000000000000e+00 
2.600000000000e+00 0.000000000000e+00 0.000000000000e+00 0.000000000000e+00 
2.650000000000e+00 0.000000000000e+00 0.000000000000e+00 0.000000000000e+00 
2.700000000000e+00 0.000000000000e+00 0.000000000000e+00 0.000000000000e+00 
2.750000000000e+00 0.000000000000e+00 0.000000000000e+00 0.000000000000e+00 
2.800000000000e+00 0.000000000000e+00 0.000000000000e+00 0.000000000000e+00 
2.850000000000e+00 0.000000000000e+00 0.000000000000e+00 0.000000000000e+00 
2.900000000000e+00 0.000000000000e+00 0.000000000000e+00 0.000000000000e+00 
2.950000000000e+00 0.000000000000e+00 0.000000000000e+00 0.000000000000e+00 
3.000000000000e+00 0.000000000000e+00 0.000000000000e+00 0.000000000000e+00 
3.050000000000e+00 0.000000000000e+00 0.000000000000e+00 0.000000000000e+00 
3.100000000000e+00 0.000000000000e+00 0.000000000000e+00 0.000000000000e+00 
3.150000000000e+00 0.000000000000e+00 0.000000000000e+00 0.000000000000e+00 
3.200000000000e+00 0.000000000000e+00 0.000000000000e+00 0.000000000000e+00 
3.250000000000e+00 0.000000000000e+00 0.000000000000e+00 0.000000000000e+00 
3.300000000000e+00 0.000000000000e+00 0.000000000000e+00 0.000000000000e+00 
3.350000000000e+00 0.000000000000e+00 0.000000000000e+00 0.000000000000e+00 
3.400000000000e+00 0.000000000000e+00 0.000000000000e+00 0.000000000000e+00 
3.450000000000e+00 0.000000000000e+00 0.000000000000e+00 0.000000000000e+00 
3.500000000000e+00 0.000000000000e+00 0.000000000000e+00 0.000000000000e+00 
3.550000000000e+00 0.000000000000e+00 0.000000000000e+00 0.000000000000e+00 
3.600000000000e+00 0.000000000000e+00 0.000000000000e+00 0.000000000000e+00 
3.650000000000e+00 0.000000000000e+00 0.000000000000e+00 0.000000000000e+00 
3.700000000000e+00 0.000000000000e+00 0.000000000000e+00 0.000000000000e+00 
3.750000000000e+00 0.000000000000e+00 0.000000000000e+00 0.000000000000e+00 
3.800000000000e+00 0.000000000000e+00 0.000000000000e+00 0.000000000000e+00 
3.850000000000e+00 0.000000000000e+00 0.000000000000e+00 0.000000000000e+00 
3.900000000000e+00 0.000000000000e+00 0.000000000000e+00 0.000000000000e+00 
3.950000000000e+00 0.000000000000e+00 0.000000000000e+00 0.000000000000e+00 
4.000000000000e+00 0.000000000000e+00 0.000000000000e+00 0.000000000000e+00 
4.050000000000e+00 0.000000000000e+00 0.000000000000e+00 0.000000000000e+00 
4.100000000000e+00 0.000000000000e+00 0.000000000000e+00 0.000000000000e+00 
4.150000000000e+00 0.000000000000e+00 0.000000000000e+00 0.000000000000e+00 
4.200000000000e+00 0.000000000000e+00 0.000000000000e+00 0.000000000000e+00 
4.250000000000e+00 0.000000000000e+00 0.000000000000e+00 0.000000000000e+00 
4.300000000000e+00 0.000000000000e+00 0.000000000000e+00 0.000000000000e+00 
4.350000000000e+00 0.000000000000e+00 0.000000000000e+00 0.000000000000e+00 
4.400000000000e+00 0.000000000000e+00 0.000000000000e+00 0.000000000000e+00 
4.450000000000e+00 0.000000000000e+00 0.000000000000e+00 0.000000000000e+00 
4.500000000000e+00 0.000000000000e+00 0.000000000000e+00 0.000000000000e+00 
4.550000000000e+00 0.000000000000e+00 0.000000000000e+00 0.000000000000e+00 
4.600000000000e+00 0.000000000000e+00 0.000000000000e+00 0.000000000000e+00 
4.650000000000e+00 0.000000000000e+00 0.000000000000e+00 0.000000000000e+00 
4.700000000000e+00 0.000000000000e+00 0.000000000000e+00 0.000000000000e+00 
1  2  2  1
2  3  3  2
3  4  4  3
4  5  5  4
5  6  6  5
6  7  7  6
7  8  8  7
8  9  9  8
9  10  10  9
10  11  11  10
11  12  12  11
12  13  13  12
13  14  14  13
14  15  15  14
15  16  16  15
16  17  17  16
17  18  18  17
18  19  19  18
19  20  20  19
20  21  21  20
21  22  22  21
22  23  23  22
23  24  24  23
24  25  25  24
25  26  26  25
26  27  27  26
27  28  28  27
28  29  29  28
29  30  30  29
30  31  31  30
31  32  32  31
32  33  33  32
33  34  34  33
34  35  35  34
35  36  36  35
36  37  37  36
37  38  38  37
38  39  39  38
39  40  40  39
40  41  41  40
41  42  42  41
42  43  43  42
43  44  44  43
44  45  45  44
45  46  46  45
46  47  47  46
47  48  48  47
48  49  49  48
49  50  50  49
50  51  51  50
51  52  52  51
52  53  53  52
53  54  54  53
54  55  55  54
55  56  56  55
56  57  57  56
57  58  58  57
58  59  59  58
59  60  60  59
60  61  61  60
61  62  62  61
62  63  63  62
63  64  64  63
64  65  65  64
65  66  66  65
66  67  67  66
67  68  68  67
68  69  69  68
69  70  70  69
70  71  71  70
71  72  72  71
72  73  73  72
73  74  74  73
74  75  75  74
75  76  76  75
76  77  77  76
77  78  78  77
78  79  79  78
79  80  80  79
80  81  81  80
81  82  82  81
82  83  83  82
83  84  84  83
84  85  85  84
85  86  86  85
86  87  87  86
87  88  88  87
88  89  89  88
89  90  90  89
90  91  91  90
91  92  92  91
92  93  93  92
93  94  94  93
94  95  95  94
VARIABLES  = "X","Y","Z", "Tracer"
ZONE T="3.600000000000e+03s", N=95, E=94, F=FEPOINT, ET=QUADRILATERAL
STRANDID=1, SOLUTIONTIME=3.600000000000e+03
0.000000000000e+00 0.000000000000e+00 0.000000000000e+00 1.194380000000e+00 
5.000000000000e-02 0.000000000000e+00 0.000000000000e+00 1.000166496065e+00 
1.000000000000e-01 0.000000000000e+00 0.000000000000e+00 8.375332974845e-01 
1.500000000000e-01 0.000000000000e+00 0.000000000000e+00 7.013452531635e-01 
2.000000000000e-01 0.000000000000e+00 0.000000000000e+00 5.873022190507e-01 
2.500000000000e-01 0.000000000000e+00 0.000000000000e+00 4.918032808397e-01 
3.000000000000e-01 0.000000000000e+00 0.000000000000e+00 4.118330549370e-01 
3.500000000000e-01 0.000000000000e+00 0.000000000000e+00 3.448664776068e-01 
4.000000000000e-01 0.000000000000e+00 0.000000000000e+00 2.887890759402e-01 
4.500000000000e-01 0.000000000000e+00 0.000000000000e+00 2.418302032770e-01 
5.000000000000e-01 0.000000000000e+00 0.000000000000e+00 2.025071309438e-01 
5.500000000000e-01 0.000000000000e+00 0.000000000000e+00 1.695782310372e-01 
6.000000000000e-01 0.000000000000e+00 0.000000000000e+00 1.420037719545e-01 
6.500000000000e-01 0.000000000000e+00 0.000000000000e+00 1.189130888212e-01 
7.000000000000e-01 0.000000000000e+00 0.000000000000e+00 9.957709220158e-02 
7.500000000000e-01 0.000000000000e+00 0.000000000000e+00 8.338524707094e-02 
8.000000000000e-01 0.000000000000e+00 0.000000000000e+00 6.982629513830e-02 
8.500000000000e-01 0.000000000000e+00 0.000000000000e+00 5.847211184240e-02 
9.000000000000e-01 0.000000000000e+00 0.000000000000e+00 4.896418829808e-02 
9.500000000000e-01 0.000000000000e+00 0.000000000000e+00 4.100231136120e-02 
1.000000000000e+00 0.000000000000e+00 0.000000000000e+00 3.433508438275e-02 
1.050000000000e+00 0.000000000000e+00 0.000000000000e+00 2.875198934995e-02 
1.100000000000e+00 0.000000000000e+00 0.000000000000e+00 2.407673976734e-02 
1.150000000000e+00 0.000000000000e+00 0.000000000000e+00 2.016171440413e-02 
1.200000000000e+00 0.000000000000e+00 0.000000000000e+00 1.688329614564e-02 
1.250000000000e+00 0.000000000000e+00 0.000000000000e+00 1.413796877736e-02 
1.300000000000e+00 0.000000000000e+00 0.000000000000e+00 1.183904845498e-02 
1.350000000000e+00 0.000000000000e+00 0.000000000000e+00 9.913946658579e-03 
1.400000000000e+00 0.000000000000e+00 0.000000000000e+00 8.301878206147e-03 
1.450000000000e+00 0.000000000000e+00 0.000000000000e+00 6.951941958468e-03 
1.500000000000e+00 0.000000000000e+00 0.000000000000e+00 5.821513613364e-03 
1.550000000000e+00 0.000000000000e+00 0.000000000000e+00 4.874899841379e-03 
1.600000000000e+00 0.000000000000e+00 0.000000000000e+00 4.082211267005e-03 
1.650000000000e+00 0.000000000000e+00 0.000000000000e+00 3.418418710275e-03 
1.700000000000e+00 0.000000000000e+00 0.000000000000e+00 2.862562889195e-03 
1.750000000000e+00 0.000000000000e+00 0.000000000000e+00 2.397092629407e-03 
1.800000000000e+00 0.000000000000e+00 0.000000000000e+00 2.007310685007e-03 
1.850000000000e+00 0.000000000000e+00 0.000000000000e+00 1.680909672316e-03 
1.900000000000e+00 0.000000000000e+00 0.000000000000e+00 1.407583463588e-03 
1.950000000000e+00 0.000000000000e+00 0.000000000000e+00 1.178701770615e-03 
2.000000000000e+00 0.000000000000e+00 0.000000000000e+00 9.870376429025e-04 
2.050000000000e+00 0.000000000000e+00 0.000000000000e+00 8.265392763750e-04 
2.100000000000e+00 0.000000000000e+00 0.000000000000e+00 6.921389273697e-04 
2.150000000000e+00 0.000000000000e+00 0.000000000000e+00 5.795928983863e-04 
2.200000000000e+00 0.000000000000e+00 0.000000000000e+00 4.853475431334e-04 
2.250000000000e+00 0.000000000000e+00 0.000000000000e+00 4.064270599758e-04 
2.300000000000e+00 0.000000000000e+00 0.000000000000e+00 3.403395308548e-04 
2.350000000000e+00 0.000000000000e+00 0.000000000000e+00 2.849982388546e-04 
2.400000000000e+00 0.000000000000e+00 0.000000000000e+00 2.386557800184e-04 
2.450000000000e+00 0.000000000000e+00 0.000000000000e+00 1.998488889771e-04 
2.500000000000e+00 0.000000000000e+00 0.000000000000e+00 1.673522362809e-04 
2.550000000000e+00 0.000000000000e+00 0.000000000000e+00 1.401397385651e-04 
2.600000000000e+00 0.000000000000e+00 0.000000000000e+00 1.173521599142e-04 
2.650000000000e+00 0.000000000000e+00 0.000000000000e+00 9.826998144885e-05 
2.700000000000e+00 0.000000000000e+00 0.000000000000e+00 8.229068248310e-05 
2.750000000000e+00 0.000000000000e+00 0.000000000000e+00 6.890971590595e-05 
2.800000000000e+00 0.000000000000e+00 0.000000000000e+00 5.770457708360e-05 
2.850000000000e+00 0.000000000000e+00 0.000000000000e+00 4.832146325537e-05 
2.900000000000e+00 0.000000000000e+00 0.000000000000e+00 4.046410219776e-05 
2.950000000000e+00 0.000000000000e+00 0.000000000000e+00 3.388439741778e-05 
3.000000000000e+00 0.000000000000e+00 0.000000000000e+00 2.837459449642e-05 
3.050000000000e+00 0.000000000000e+00 0.000000000000e+00 2.376072123633e-05 
3.100000000000e+00 0.000000000000e+00 0.000000000000e+00 1.989709448772e-05 
3.150000000000e+00 0.000000000000e+00 0.000000000000e+00 1.666172020124e-05 
3.200000000000e+00 0.000000000000e+00 0.000000000000e+00 1.395244146810e-05 
3.250000000000e+00 0.000000000000e+00 0.000000000000e+00 1.168371292070e-05 
3.300000000000e+00 0.000000000000e+00 0.000000000000e+00 9.783899645957e-06 
3.350000000000e+00 0.000000000000e+00 0.000000000000e+00 8.193015325115e-06 
3.400000000000e+00 0.000000000000e+00 0.000000000000e+00 6.860828182569e-06 
3.450000000000e+00 0.000000000000e+00 0.000000000000e+00 5.745274939608e-06 
3.500000000000e+00 0.000000000000e+00 0.000000000000e+00 4.811132695513e-06 
3.550000000000e+00 0.000000000000e+00 0.000000000000e+00 4.028906801748e-06 
3.600000000000e+00 0.000000000000e+00 0.000000000000e+00 3.373899615760e-06 
3.650000000000e+00 0.000000000000e+00 0.000000000000e+00 2.825430733153e-06 
3.700000000000e+00 0.000000000000e+00 0.000000000000e+00 2.366184080020e-06 
3.750000000000e+00 0.000000000000e+00 0.000000000000e+00 1.981661253892e-06 
3.800000000000e+00 0.000000000000e+00 0.000000000000e+00 1.659723857594e-06 
3.850000000000e+00 0.000000000000e+00 0.000000000000e+00 1.390210381350e-06 
3.900000000000e+00 0.000000000000e+00 0.000000000000e+00 1.164615544556e-06 
3.950000000000e+00 0.000000000000e+00 0.000000000000e+00 9.758219818445e-07 
4.000000000000e+00 0.000000000000e+00 0.000000000000e+00 8.178758143921e-07 
4.050000000000e+00 0.000000000000e+00 0.000000000000e+00 6.857990357241e-07 
4.100000000000e+00 0.000000000000e+00 0.000000000000e+00 5.754328079071e-07 
4.150000000000e+00 0.000000000000e+00 0.000000000000e+00 4.833067450760e-07 
4.200000000000e+00 0.000000000000e+00 0.000000000000e+00 4.065300880807e-07 
4.250000000000e+00 0.000000000000e+00 0.000000000000e+00 3.427013733979e-07 
4.300000000000e+00 0.000000000000e+00 0.000000000000e+00 2.898337932585e-07 
4.350000000000e+00 0.000000000000e+00 0.000000000000e+00 2.462939521148e-07 
4.400000000000e+00 0.000000000000e+00 0.000000000000e+00 2.107521633107e-07 
4.450000000000e+00 0.000000000000e+00 0.000000000000e+00 1.821428141170e-07 
4.500000000000e+00 0.000000000000e+00 0.000000000000e+00 1.596336701600e-07 
4.550000000000e+00 0.000000000000e+00 0.000000000000e+00 1.426033038289e-07 
4.600000000000e+00 0.000000000000e+00 0.000000000000e+00 1.306261271354e-07 
4.650000000000e+00 0.000000000000e+00 0.000000000000e+00 1.234647990548e-07 
4.700000000000e+00 0.000000000000e+00 0.000000000000e+00 1.210700722631e-07 
1  2  2  1
2  3  3  2
3  4  4  3
4  5  5  4
5  6  6  5
6  7  7  6
7  8  8  7
8  9  9  8
9  10  10  9
10  11  11  10
11  12  12  11
12  13  13  12
13  14  14  13
14  15  15  14
15  16  16  15
16  17  17  16
17  18  18  17
18  19  19  18
19  20  20  19
20  21  21  20
21  22  22  21
22  23  23  22
23  24  24  23
24  25  25  24
25  26  26  25
26  27  27  26
27  28  28  27
28  29  29  28
29  30  30  29
30  31  31  30
31  32  32  31
32  33  33  32
33  34  34  33
34  35  35  34
35  36  36  35
36  37  37  36
37  38  38  37
38  39  39  38
39  40  40  39
40  41  41  40
41  42  42  41
42  43  43  42
43  44  44  43
44  45  45  44
45  46  46  45
46  47  47  46
47  48  48  47
48  49  49  48
49  50  50  49
50  51  51  50
51  52  52  51
52  53  53  52
53  54  54  53
54  55  55  54
55  56  56  55
56  57  57  56
57  58  58  57
58  59  59  58
59  60  60  59
60  61  61  60
61  62  62  61
62  63  63  62
63  64  64  63
64  65  65  64
65  66  66  65
66  67  67  66
67  68  68  67
68  69  69  68
69  70  70  69
70  71  71  70
71  72  72  71
72  73  73  72
73  74  74  73
74  75  75  74
75  76  76  75
76  77  77  76
77  78  78  77
78  79  79  78
79  80  80  79
80  81  81  80
81  82  82  81
82  83  83  82
83  84  84  83
84  85  85  84
85  86  86  85
86  87  87  86
87  88  88  87
88  89  89  88
89  90  90  89
90  91  91  90
91  92  92  91
92  93  93  92
93  94  94  93
94  95  95  94
VARIABLES  = "X","Y","Z", "Tracer"
ZONE T="7.200000000000e+03s", N=95, E=94, F=FEPOINT, ET=QUADRILATERAL
STRANDID=1, SOLUTIONTIME=7.200000000000e+03
0.000000000000e+00 0.000000000000e+00 0.000000000000e+00 0.000000000000e+00 
5.000000000000e-02 0.000000000000e+00 0.000000000000e+00 9.995889476595e-02 
1.000000000000e-01 0.000000000000e+00 0.000000000000e+00 1.674099323978e-01 
1.500000000000e-01 0.000000000000e+00 0.000000000000e+00 2.102820779332e-01 
2.000000000000e-01 0.000000000000e+00 0.000000000000e+00 2.347852320268e-01 
2.500000000000e-01 0.000000000000e+00 0.000000000000e+00 2.457596439612e-01 
3.000000000000e-01 0.000000000000e+00 0.000000000000e+00 2.469571446029e-01 
3.500000000000e-01 0.000000000000e+00 0.000000000000e+00 2.412671335726e-01 
4.000000000000e-01 0.000000000000e+00 0.000000000000e+00 2.308978512247e-01 
4.500000000000e-01 0.000000000000e+00 0.000000000000e+00 2.175215020865e-01 
5.000000000000e-01 0.000000000000e+00 0.000000000000e+00 2.023901927382e-01 
5.500000000000e-01 0.000000000000e+00 0.000000000000e+00 1.864283384699e-01 
6.000000000000e-01 0.000000000000e+00 0.000000000000e+00 1.703061258618e-01 
6.500000000000e-01 0.000000000000e+00 0.000000000000e+00 1.544977488411e-01 
7.000000000000e-01 0.000000000000e+00 0.000000000000e+00 1.393274276539e-01 
7.500000000000e-01 0.000000000000e+00 0.000000000000e+00 1.250056441032e-01 
8.000000000000e-01 0.000000000000e+00 0.000000000000e+00 1.116575580544e-01 
8.500000000000e-01 0.000000000000e+00 0.000000000000e+00 9.934518987837e-02 
9.000000000000e-01 0.000000000000e+00 0.000000000000e+00 8.808464486740e-02 
9.500000000000e-01 0.000000000000e+00 0.000000000000e+00 7.785940551646e-02 
1.000000000000e+00 0.000000000000e+00 0.000000000000e+00 6.863051501888e-02 
1.050000000000e+00 0.000000000000e+00 0.000000000000e+00 6.034431154002e-02 
1.100000000000e+00 0.000000000000e+00 0.000000000000e+00 5.293824051701e-02 
1.150000000000e+00 0.000000000000e+00 0.000000000000e+00 4.634516554440e-02 
1.200000000000e+00 0.000000000000e+00 0.000000000000e+00 4.049651243401e-02 
1.250000000000e+00 0.000000000000e+00 0.000000000000e+00 3.532451193702e-02 
1.300000000000e+00 0.000000000000e+00 0.000000000000e+00 3.076375112010e-02 
1.350000000000e+00 0.000000000000e+00 0.000000000000e+00 2.675219893382e-02 
1.400000000000e+00 0.000000000000e+00 0.000000000000e+00 2.323183594913e-02 
1.450000000000e+00 0.000000000000e+00 0.000000000000e+00 2.014898987663e-02 
1.500000000000e+00 0.000000000000e+00 0.000000000000e+00 1.745445590108e-02 
1.550000000000e+00 0.000000000000e+00 0.000000000000e+00 1.510346294003e-02 
1.600000000000e+00 0.000000000000e+00 0.000000000000e+00 1.305553275155e-02 
1.650000000000e+00 0.000000000000e+00 0.000000000000e+00 1.127426763110e-02 
1.700000000000e+00 0.000000000000e+00 0.000000000000e+00 9.727093645987e-03 
1.750000000000e+00 0.000000000000e+00 0.000000000000e+00 8.384979480522e-03 
1.800000000000e+00 0.000000000000e+00 0.000000000000e+00 7.222145612902e-03 
1.850000000000e+00 0.000000000000e+00 0.000000000000e+00 6.215774401844e-03 
1.900000000000e+00 0.000000000000e+00 0.000000000000e+00 5.345728476540e-03 
1.950000000000e+00 0.000000000000e+00 0.000000000000e+00 4.594282395684e-03 
2.000000000000e+00 0.000000000000e+00 0.000000000000e+00 3.945870705545e-03 
2.050000000000e+00 0.000000000000e+00 0.000000000000e+00 3.386854159576e-03 
2.100000000000e+00 0.000000000000e+00 0.000000000000e+00 2.905304854549e-03 
2.150000000000e+00 0.000000000000e+00 0.000000000000e+00 2.490810312685e-03 
2.200000000000e+00 0.000000000000e+00 0.000000000000e+00 2.134296029467e-03 
2.250000000000e+00 0.000000000000e+00 0.000000000000e+00 1.827865662099e-03 
2.300000000000e+00 0.000000000000e+00 0.000000000000e+00 1.564657813614e-03 
2.350000000000e+00 0.000000000000e+00 0.000000000000e+00 1.338718241069e-03 
2.400000000000e+00 0.000000000000e+00 0.000000000000e+00 1.144886258460e-03 
2.450000000000e+00 0.000000000000e+00 0.000000000000e+00 9.786940969497e-04 
2.500000000000e+00 0.000000000000e+00 0.000000000000e+00 8.362780121695e-04 
2.550000000000e+00 0.000000000000e+00 0.000000000000e+00 7.142999792804e-04 
2.600000000000e+00 0.000000000000e+00 0.000000000000e+00 6.098788828702e-04 
2.650000000000e+00 0.000000000000e+00 0.000000000000e+00 5.205301843552e-04 
2.700000000000e+00 0.000000000000e+00 0.000000000000e+00 4.441131292593e-04 
2.750000000000e+00 0.000000000000e+00 0.000000000000e+00 3.787846375593e-04 
2.800000000000e+00 0.000000000000e+00 0.000000000000e+00 3.229590995665e-04 
2.850000000000e+00 0.000000000000e+00 0.000000000000e+00 2.752733759585e-04 
2.900000000000e+00 0.000000000000e+00 0.000000000000e+00 2.345563725628e-04 
2.950000000000e+00 0.000000000000e+00 0.000000000000e+00 1.998026275447e-04 
3.000000000000e+00 0.000000000000e+00 0.000000000000e+00 1.701494105894e-04 
3.050000000000e+00 0.000000000000e+00 0.000000000000e+00 1.448568903236e-04 
3.100000000000e+00 0.000000000000e+00 0.000000000000e+00 1.232909776906e-04 
3.150000000000e+00 0.000000000000e+00 0.000000000000e+00 1.049084994077e-04 
3.200000000000e+00 0.000000000000e+00 0.000000000000e+00 8.924439740955e-05 
3.250000000000e+00 0.000000000000e+00 0.000000000000e+00 7.590068744590e-05 
3.300000000000e+00 0.000000000000e+00 0.000000000000e+00 6.453694322833e-05 
3.350000000000e+00 0.000000000000e+00 0.000000000000e+00 5.486210198323e-05 
3.400000000000e+00 0.000000000000e+00 0.000000000000e+00 4.662741333314e-05 
3.450000000000e+00 0.000000000000e+00 0.000000000000e+00 3.962037641308e-05 
3.500000000000e+00 0.000000000000e+00 0.000000000000e+00 3.365953035701e-05 
3.550000000000e+00 0.000000000000e+00 0.000000000000e+00 2.858998103436e-05 
3.600000000000e+00 0.000000000000e+00 0.000000000000e+00 2.427956246697e-05 
3.650000000000e+00 0.000000000000e+00 0.000000000000e+00 2.061554495526e-05 
3.700000000000e+00 0.000000000000e+00 0.000000000000e+00 1.750181380419e-05 
3.750000000000e+00 0.000000000000e+00 0.000000000000e+00 1.485645288474e-05 
3.800000000000e+00 0.000000000000e+00 0.000000000000e+00 1.260967626840e-05 
3.850000000000e+00 0.000000000000e+00 0.000000000000e+00 1.070205899903e-05 
3.900000000000e+00 0.000000000000e+00 0.000000000000e+00 9.083024870434e-06 
3.950000000000e+00 0.000000000000e+00 0.000000000000e+00 7.709554975457e-06 
4.000000000000e+00 0.000000000000e+00 0.000000000000e+00 6.545085923593e-06 
4.050000000000e+00 0.000000000000e+00 0.000000000000e+00 5.558571069364e-06 
4.100000000000e+00 0.000000000000e+00 0.000000000000e+00 4.723681960263e-06 
4.150000000000e+00 0.000000000000e+00 0.000000000000e+00 4.018130576880e-06 
4.200000000000e+00 0.000000000000e+00 0.000000000000e+00 3.423095872466e-06 
4.250000000000e+00 0.000000000000e+00 0.000000000000e+00 2.922740692200e-06 
4.300000000000e+00 0.000000000000e+00 0.000000000000e+00 2.503807418781e-06 
4.350000000000e+00 0.000000000000e+00 0.000000000000e+00 2.155282708952e-06 
4.400000000000e+00 0.000000000000e+00 0.000000000000e+00 1.868123501507e-06 
4.450000000000e+00 0.000000000000e+00 0.000000000000e+00 1.635038140113e-06 
4.500000000000e+00 0.000000000000e+00 0.000000000000e+00 1.450318008087e-06 
4.550000000000e+00 0.000000000000e+00 0.000000000000e+00 1.309716561586e-06 
4.600000000000e+00 0.000000000000e+00 0.000000000000e+00 1.210374118845e-06 
4.650000000000e+00 0.000000000000e+00 0.000000000000e+00 1.150788263695e-06 
4.700000000000e+00 0.000000000000e+00 0.000000000000e+00 1.130831302782e-06 
1  2  2  1
2  3  3  2
3  4  4  3
4  5  5  4
5  6  6  5
6  7  7  6
7  8  8  7
8  9  9  8
9  10  10  9
10  11  11  10
11  12  12  11
12  13  13  12
13  14  14  13
14  15  15  14
15  16  16  15
16  17  17  16
17  18  18  17
18  19  19  18
19  20  20  19
20  21  21  20
21  22  22  21
22  23  23  22
23  24  24  23
24  25  25  24
25  26  26  25
26  27  27  26
27  28  28  27
28  29  29  28
29  30  30  29
30  31  31  30
31  32  32  31
32  33  33  32
33  34  34  33
34  35  35  34
35  36  36  35
36  37  37  36
37  38  38  37
38  39  39  38
39  40  40  39
40  41  41  40
41  42  42  41
42  43  43  42
43  44  44  43
44  45  45  44
45  46  46  45
46  47  47  46
47  48  48  47
48  49  49  48
49  50  50  49
50  51  51  50
51  52  52  51
52  53  53  52
53  54  54  53
54  55  55  54
55  56  56  55
56  57  57  56
57  58  58  57
58  59  59  58
59  60  60  59
60  61  61  60
61  62  62  61
62  63  63  62
63  64  64  63
64  65  65  64
65  66  66  65
66  67  67  66
67  68  68  67
68  69  69  68
69  70  70  69
70  71  71  70
71  72  72  71
72  73  73  72
73  74  74  73
74  75  75  74
75  76  76  75
76  77  77  76
77  78  78  77
78  79  79  78
79  80  80  79
80  81  81  80
81  82  82  81
82  83  83  82
83  84  84  83
84  85  85  84
85  86  86  85
86  87  87  86
87  88  88  87
88  89  89  88
89  90  90  89
90  91  91  90
91  92  92  91
92  93  93  92
93  94  94  93
94  95  95  94
VARIABLES  = "X","Y","Z", "Tracer"
ZONE T="1.080000000000e+04s", N=95, E=94, F=FEPOINT, ET=QUADRILATERAL
STRANDID=1, SOLUTIONTIME=1.080000000000e+04
0.000000000000e+00 0.000000000000e+00 0.000000000000e+00 0.000000000000e+00 
5.000000000000e-02 0.000000000000e+00 0.000000000000e+00 2.939110032464e-02 
1.000000000000e-01 0.000000000000e+00 0.000000000000e+00 5.758951782311e-02 
1.500000000000e-01 0.000000000000e+00 0.000000000000e+00 8.284569671313e-02 
2.000000000000e-01 0.000000000000e+00 0.000000000000e+00 1.042317880348e-01 
2.500000000000e-01 0.000000000000e+00 0.000000000000e+00 1.213847125353e-01 
3.000000000000e-01 0.000000000000e+00 0.000000000000e+00 1.343169046431e-01 
3.500000000000e-01 0.000000000000e+00 0.000000000000e+00 1.432785694192e-01 
4.000000000000e-01 0.000000000000e+00 0.000000000000e+00 1.486589075459e-01 
4.500000000000e-01 0.000000000000e+00 0.000000000000e+00 1.509166106141e-01 
5.000000000000e-01 0.000000000000e+00 0.000000000000e+00 1.505321609026e-01 
5.500000000000e-01 0.000000000000e+00 0.000000000000e+00 1.479762146848e-01 
6.000000000000e-01 0.000000000000e+00 0.000000000000e+00 1.436897081421e-01 
6.500000000000e-01 0.000000000000e+00 0.000000000000e+00 1.380723815998e-01 
7.000000000000e-01 0.000000000000e+00 0.000000000000e+00 1.314772357627e-01 
7.500000000000e-01 0.000000000000e+00 0.000000000000e+00 1.242090642774e-01 
8.000000000000e-01 0.000000000000e+00 0.000000000000e+00 1.165256909735e-01 
8.500000000000e-01 0.000000000000e+00 0.000000000000e+00 1.086409097476e-01 
9.000000000000e-01 0.000000000000e+00 0.000000000000e+00 1.007284056316e-01 
9.500000000000e-01 0.000000000000e+00 0.000000000000e+00 9.292614715025e-02 
1.000000000000e+00 0.000000000000e+00 0.000000000000e+00 8.534089833901e-02 
1.050000000000e+00 0.000000000000e+00 0.000000000000e+00 7.805261608713e-02 
1.100000000000e+00 0.000000000000e+00 0.000000000000e+00 7.111858439675e-02 
1.150000000000e+00 0.000000000000e+00 0.000000000000e+00 6.457719925726e-02 
1.200000000000e+00 0.000000000000e+00 0.000000000000e+00 5.845136188142e-02 
1.250000000000e+00 0.000000000000e+00 0.000000000000e+00 5.275146861123e-02 
1.300000000000e+00 0.000000000000e+00 0.000000000000e+00 4.747800629126e-02 
1.350000000000e+00 0.000000000000e+00 0.000000000000e+00 4.262377502567e-02 
1.400000000000e+00 0.000000000000e+00 0.000000000000e+00 3.817576797722e-02 
1.450000000000e+00 0.000000000000e+00 0.000000000000e+00 3.411674180238e-02 
1.500000000000e+00 0.000000000000e+00 0.000000000000e+00 3.042651257504e-02 
1.550000000000e+00 0.000000000000e+00 0.000000000000e+00 2.708301150608e-02 
1.600000000000e+00 0.000000000000e+00 0.000000000000e+00 2.406313305305e-02 
1.650000000000e+00 0.000000000000e+00 0.000000000000e+00 2.134340559771e-02 
1.700000000000e+00 0.000000000000e+00 0.000000000000e+00 1.890051207546e-02 
1.750000000000e+00 0.000000000000e+00 0.000000000000e+00 1.671168501077e-02 
1.800000000000e+00 0.000000000000e+00 0.000000000000e+00 1.475499750202e-02 
1.850000000000e+00 0.000000000000e+00 0.000000000000e+00 1.300956891408e-02 
1.900000000000e+00 0.000000000000e+00 0.000000000000e+00 1.145570144087e-02 
1.950000000000e+00 0.000000000000e+00 0.000000000000e+00 1.007496133171e-02 
2.000000000000e+00 0.000000000000e+00 0.000000000000e+00 8.850216443538e-03 
2.050000000000e+00 0.000000000000e+00 0.000000000000e+00 7.765639896305e-03 
2.100000000000e+00 0.000000000000e+00 0.000000000000e+00 6.806687953314e-03 