<?xml version="1.0"?>
<!-- Time step: 190 | Time: 6.840000000000e+05 -->
<VTKFile type="UnstructuredGrid" version="0.1" byte_order="LittleEndian">
  <UnstructuredGrid>
    <Piece NumberOfPoints="95" NumberOfCells="94">
      <Points>
        <DataArray type="Float64" NumberOfComponents="3" format="ascii">
          0.000000000000e+00 0.000000000000e+00 0.000000000000e+00
          5.000000000000e-02 0.000000000000e+00 0.000000000000e+00
          1.000000000000e-01 0.000000000000e+00 0.000000000000e+00
          1.500000000000e-01 0.000000000000e+00 0.000000000000e+00
          2.000000000000e-01 0.000000000000e+00 0.000000000000e+00
          2.500000000000e-01 0.000000000000e+00 0.000000000000e+00
          3.000000000000e-01 0.000000000000e+00 0.000000000000e+00
          3.500000000000e-01 0.000000000000e+00 0.000000000000e+00
          4.000000000000e-01 0.000000000000e+00 0.000000000000e+00
          4.500000000000e-01 0.000000000000e+00 0.000000000000e+00
          5.000000000000e-01 0.000000000000e+00 0.000000000000e+00
          5.500000000000e-01 0.000000000000e+00 0.000000000000e+00
          6.000000000000e-01 0.000000000000e+00 0.000000000000e+00
          6.500000000000e-01 0.000000000000e+00 0.000000000000e+00
          7.000000000000e-01 0.000000000000e+00 0.000000000000e+00
          7.500000000000e-01 0.000000000000e+00 0.000000000000e+00
          8.000000000000e-01 0.000000000000e+00 0.000000000000e+00
          8.500000000000e-01 0.000000000000e+00 0.000000000000e+00
          9.000000000000e-01 0.000000000000e+00 0.000000000000e+00
          9.500000000000e-01 0.000000000000e+00 0.000000000000e+00
          1.000000000000e+00 0.000000000000e+00 0.000000000000e+00
          1.050000000000e+00 0.000000000000e+00 0.000000000000e+00
          1.100000000000e+00 0.000000000000e+00 0.000000000000e+00
          1.150000000000e+00 0.000000000000e+00 0.000000000000e+00
          1.200000000000e+00 0.000000000000e+00 0.000000000000e+00
          1.250000000000e+00 0.000000000000e+00 0.000000000000e+00
          1.300000000000e+00 0.000000000000e+00 0.000000000000e+00
          1.350000000000e+00 0.000000000000e+00 0.000000000000e+00
          1.400000000000e+00 0.000000000000e+00 0.000000000000e+00
          1.450000000000e+00 0.000000000000e+00 0.000000000000e+00
          1.500000000000e+00 0.000000000000e+00 0.000000000000e+00
          1.550000000000e+00 0.000000000000e+00 0.000000000000e+00
          1.600000000000e+00 0.000000000000e+00 0.000000000000e+00
          1.650000000000e+00 0.000000000000e+00 0.000000000000e+00
          1.700000000000e+00 0.000000000000e+00 0.000000000000e+00
          1.750000000000e+00 0.000000000000e+00 0.000000000000e+00
          1.800000000000e+00 0.000000000000e+00 0.000000000000e+00
          1.850000000000e+00 0.000000000000e+00 0.000000000000e+00
          1.900000000000e+00 0.000000000000e+00 0.000000000000e+00
          1.950000000000e+00 0.000000000000e+00 0.000000000000e+00
          2.000000000000e+00 0.000000000000e+00 0.000000000000e+00
          2.050000000000e+00 0.000000000000e+00 0.000000000000e+00
          2.100000000000e+00 0.000000000000e+00 0.000000000000e+00
          2.150000000000e+00 0.000000000000e+00 0.000000000000e+00
          2.200000000000e+00 0.000000000000e+00 0.000000000000e+00
          2.250000000000e+00 0.000000000000e+00 0.000000000000e+00
          2.300000000000e+00 0.000000000000e+00 0.000000000000e+00
          2.350000000000e+00 0.000000000000e+00 0.000000000000e+00
          2.400000000000e+00 0.000000000000e+00 0.000000000000e+00
          2.450000000000e+00 0.000000000000e+00 0.000000000000e+00
          2.500000000000e+00 0.000000000000e+00 0.000000000000e+00
          2.550000000000e+00 0.000000000000e+00 0.000000000000e+00
          2.600000000000e+00 0.000000000000e+00 0.000000000000e+00
          2.650000000000e+00 0.000000000000e+00 0.000000000000e+00
          2.700000000000e+00 0.000000000000e+00 0.000000000000e+00
          2.750000000000e+00 0.000000000000e+00 0.000000000000e+00
          2.800000000000e+00 0.000000000000e+00 0.000000000000e+00
          2.850000000000e+00 0.000000000000e+00 0.000000000000e+00
          2.900000000000e+00 0.000000000000e+00 0.000000000000e+00
          2.950000000000e+00 0.000000000000e+00 0.000000000000e+00
          3.000000000000e+00 0.000000000000e+00 0.000000000000e+00
          3.050000000000e+00 0.000000000000e+00 0.000000000000e+00
          3.100000000000e+00 0.000000000000e+00 0.000000000000e+00
          3.150000000000e+00 0.000000000000e+00 0.000000000000e+00
          3.200000000000e+00 0.000000000000e+00 0.000000000000e+00
          3.250000000000e+00 0.000000000000e+00 0.000000000000e+00
          3.300000000000e+00 0.000000000000e+00 0.000000000000e+00
          3.350000000000e+00 0.000000000000e+00 0.000000000000e+00
          3.400000000000e+00 0.000000000000e+00 0.000000000000e+00
          3.450000000000e+00 0.000000000000e+00 0.000000000000e+00
          3.500000000000e+00 0.000000000000e+00 0.000000000000e+00
          3.550000000000e+00 0.000000000000e+00 0.000000000000e+00
          3.600000000000e+00 0.000000000000e+00 0.000000000000e+00
          3.650000000000e+00 0.000000000000e+00 0.000000000000e+00
          3.700000000000e+00 0.000000000000e+00 0.000000000000e+00
          3.750000000000e+00 0.000000000000e+00 0.000000000000e+00
          3.800000000000e+00 0.000000000000e+00 0.000000000000e+00
          3.850000000000e+00 0.000000000000e+00 0.000000000000e+00
          3.900000000000e+00 0.000000000000e+00 0.000000000000e+00
          3.950000000000e+00 0.000000000000e+00 0.000000000000e+00
          4.000000000000e+00 0.000000000000e+00 0.000000000000e+00
          4.050000000000e+00 0.000000000000e+00 0.000000000000e+00
          4.100000000000e+00 0.000000000000e+00 0.000000000000e+00
          4.150000000000e+00 0.000000000000e+00 0.000000000000e+00
          4.200000000000e+00 0.000000000000e+00 0.000000000000e+00
          4.250000000000e+00 0.000000000000e+00 0.000000000000e+00
          4.300000000000e+00 0.000000000000e+00 0.000000000000e+00
          4.350000000000e+00 0.000000000000e+00 0.000000000000e+00
          4.400000000000e+00 0.000000000000e+00 0.000000000000e+00
          4.450000000000e+00 0.000000000000e+00 0.000000000000e+00
          4.500000000000e+00 0.000000000000e+00 0.000000000000e+00
          4.550000000000e+00 0.000000000000e+00 0.000000000000e+00
          4.600000000000e+00 0.000000000000e+00 0.000000000000e+00
          4.650000000000e+00 0.000000000000e+00 0.000000000000e+00
          4.700000000000e+00 0.000000000000e+00 0.000000000000e+00
        </DataArray>
      </Points>
      <Cells>
        <DataArray type="Int64" Name="connectivity" format="ascii">
          0 1 
          1 2 
          2 3 
          3 4 
          4 5 
          5 6 
          6 7 
          7 8 
          8 9 
          9 10 
          10 11 
          11 12 
          12 13 
          13 14 
          14 15 
          15 16 
          16 17 
          17 18 
          18 19 
          19 20 
          20 21 
          21 22 
          22 23 
          23 24 
          24 25 
          25 26 
          26 27 
          27 28 
          28 29 
          29 30 
          30 31 
          31 32 
          32 33 
          33 34 
          34 35 
          35 36 
          36 37 
          37 38 
          38 39 
          39 40 
          40 41 
          41 42 
          42 43 
          43 44 
          44 45 
          45 46 
          46 47 
          47 48 
          48 49 
          49 50 
          50 51 
          51 52 
          52 53 
          53 54 
          54 55 
          55 56 
          56 57 
          57 58 
          58 59 
          59 60 
          60 61 
          61 62 
          62 63 
          63 64 
          64 65 
          65 66 
          66 67 
          67 68 
          68 69 
          69 70 
          70 71 
          71 72 
          72 73 
          73 74 
          74 75 
          75 76 
          76 77 
          77 78 
          78 79 
          79 80 
          80 81 
          81 82 
          82 83 
          83 84 
          84 85 
          85 86 
          86 87 
          87 88 
          88 89 
          89 90 
          90 91 
          91 92 
          92 93 
          93 94 
        </DataArray>
        <DataArray type="Int64" Name="offsets" format="ascii">
          2 4 6 8 10 12 14 16 18 20 22 24 26 28 30 32 34 36 38 40 42 44 46 48 50 52 54 56 58 60 62 64 66 68 70 72 74 76 78 80 82 84 86 88 90 92 94 96 98 100 102 104 106 108 110 112 114 116 118 120 122 124 126 128 130 132 134 136 138 140 142 144 146 148 150 152 154 156 158 160 162 164 166 168 170 172 174 176 178 180 182 184 186 188 
        </DataArray>
        <DataArray type="UInt8" Name="types" format="ascii">
          3 3 3 3 3 3 3 3 3 3 3 3 3 3 3 3 3 3 3 3 3 3 3 3 3 3 3 3 3 3 3 3 3 3 3 3 3 3 3 3 3 3 3 3 3 3 3 3 3 3 3 3 3 3 3 3 3 3 3 3 3 3 3 3 3 3 3 3 3 3 3 3 3 3 3 3 3 3 3 3 3 3 3 3 3 3 3 3 3 3 3 3 3 3 
        </DataArray>
      </Cells>
      <PointData Scalars="Tracer">
        <DataArray type="Float64" Name="Tracer" format="ascii">
          0.000000000000e+00 9.955520052386e-07 2.040867909287e-06 3.137156105570e-06 4.285621453879e-06 5.487463552531e-06 6.743874928446e-06 8.056039143205e-06 9.425128814266e-06 1.085230354849e-05 1.233870778688e-05 1.388546855778e-05 1.549369313798e-05 1.716446661892e-05 1.889884937725e-05 2.069787444667e-05 2.256254479109e-05 2.449383047627e-05 2.649266573890e-05 2.855994595140e-05 3.069652448161e-05 3.290320944444e-05 3.518076034667e-05 3.752988462071e-05 3.995123404875e-05 4.244540107448e-05 4.501291500267e-05 4.765423808393e-05 5.036976148591e-05 5.315980114920e-05 5.602459352698e-05 5.896429120828e-05 6.197895842528e-05 6.506856644325e-05 6.823298883361e-05 7.147199663023e-05 7.478525336896e-05 7.817231001083e-05 8.163259975019e-05 8.516543270639e-05 8.876999050292e-05 9.244532073265e-05 9.619033131175e-05 1.000037847232e-04 1.038842921521e-04 1.078303075142e-04 1.118401213804e-04 1.159118547994e-04 1.200434530208e-04 1.242326791228e-04 1.284771075464e-04 1.327741175396e-04 1.371208865173e-04 1.415143833391e-04 1.459513615098e-04 1.504283523081e-04 1.549416578476e-04 1.594873440774e-04 1.640612337249e-04 1.686588991901e-04 1.732756553968e-04 1.779065526075e-04 1.825463692093e-04 1.871896044785e-04 1.918304713334e-04 1.964628890821e-04 2.010804761753e-04 2.056765429739e-04 2.102440845407e-04 2.147757734681e-04 2.192639527503e-04 2.237006287139e-04 2.280774640185e-04 2.323857707386e-04 2.366165035412e-04 2.407602529725e-04 2.448072388665e-04 2.487473038941e-04 2.525699072617e-04 2.562641185826e-04 2.598186119319e-04 2.632216601054e-04 2.664611290991e-04 2.695244728275e-04 2.723987281009e-04 2.750705098803e-04 2.775260068304e-04 2.797509771921e-04 2.817307449960e-04 2.834501966409e-04 2.848937778564e-04 2.860454910777e-04 2.868888932542e-04 2.874070941186e-04 2.875827549417e-04 
        </DataArray>
      </PointData>
      <CellData>
      </CellData>
    </Piece>
  </UnstructuredGrid>
</VTKFile>
